<VTKFile type="ImageData">
<ImageData Origin="-0.0013 -0.0013 0.0" Spacing="0.00013 0.00013 0.00015000000000000001" WholeExtent="0 20 0 20 0 40">
<PointData>
<DataArray Name="NodeVol" NumberOfComponents="1" format="ascii" type="Float64">
3.1687499999999995e-13 6.337499999999999e-13 6.337499999999999e-13 6.337499999999999e-13 6.337499999999999e-13 6.337499999999999e-13 6.337499999999999e-13 6.337499999999999e-13 6.337499999999999e-13 6.337499999999999e-13 6.337499999999999e-13 6.337499999999999e-13 6.337499999999999e-13 6.337499999999999e-13 6.337499999999999e-13 6.337499999999999e-13 6.337499999999999e-13 6.337499999999999e-13 6.337499999999999e-13 6.337499999999999e-13 3.1687499999999995e-13 6.337499999999999e-13 1.2674999999999998e-12 1.2674999999999998e-12 1.2674999999999998e-12 1.2674999999999998e-12 1.2674999999999998e-12 1.2674999999999998e-12 1.2674999999999998e-12 1.2674999999999998e-12 1.2674999999999998e-12 1.2674999999999998e-12 1.2674999999999998e-12 1.2674999999999998e-12 1.2674999999999998e-12 1.2674999999999998e-12 1.2674999999999998e-12 1.2674999999999998e-12 1.2674999999999998e-12 1.2674999999999998e-12 1.2674999999999998e-12 6.337499999999999e-13 6.337499999999999e-13 1.2674999999999998e-12 1.2674999999999998e-12 1.2674999999999998e-12 1.2674999999999998e-12 1.2674999999999998e-12 1.2674999999999998e-12 1.2674999999999998e-12 1.2674999999999998e-12 1.2674999999999998e-12 1.2674999999999998e-12 1.2674999999999998e-12 1.2674999999999998e-12 1.2674999999999998e-12 1.2674999999999998e-12 1.2674999999999998e-12 1.2674999999999998e-12 1.2674999999999998e-12 1.2674999999999998e-12 1.2674999999999998e-12 6.337499999999999e-13 6.337499999999999e-13 1.2674999999999998e-12 1.2674999999999998e-12 1.2674999999999998e-12 1.2674999999999998e-12 1.2674999999999998e-12 1.2674999999999998e-12 1.2674999999999998e-12 1.2674999999999998e-12 1.2674999999999998e-12 1.2674999999999998e-12 1.2674999999999998e-12 1.2674999999999998e-12 1.2674999999999998e-12 1.2674999999999998e-12 1.2674999999999998e-12 1.2674999999999998e-12 1.2674999999999998e-12 1.2674999999999998e-12 1.2674999999999998e-12 6.337499999999999e-13 6.337499999999999e-13 1.2674999999999998e-12 1.2674999999999998e-12 1.2674999999999998e-12 1.2674999999999998e-12 1.2674999999999998e-12 1.2674999999999998e-12 1.2674999999999998e-12 1.2674999999999998e-12 1.2674999999999998e-12 1.2674999999999998e-12 1.2674999999999998e-12 1.2674999999999998e-12 1.2674999999999998e-12 1.2674999999999998e-12 1.2674999999999998e-12 1.2674999999999998e-12 1.2674999999999998e-12 1.2674999999999998e-12 1.2674999999999998e-12 6.337499999999999e-13 6.337499999999999e-13 1.2674999999999998e-12 1.2674999999999998e-12 1.2674999999999998e-12 1.2674999999999998e-12 1.2674999999999998e-12 1.2674999999999998e-12 1.2674999999999998e-12 1.2674999999999998e-12 1.2674999999999998e-12 1.2674999999999998e-12 1.2674999999999998e-12 1.2674999999999998e-12 1.2674999999999998e-12 1.2674999999999998e-12 1.2674999999999998e-12 1.2674999999999998e-12 1.2674999999999998e-12 1.2674999999999998e-12 1.2674999999999998e-12 6.337499999999999e-13 6.337499999999999e-13 1.2674999999999998e-12 1.2674999999999998e-12 1.2674999999999998e-12 1.2674999999999998e-12 1.2674999999999998e-12 1.2674999999999998e-12 1.2674999999999998e-12 1.2674999999999998e-12 1.2674999999999998e-12 1.2674999999999998e-12 1.2674999999999998e-12 1.2674999999999998e-12 1.2674999999999998e-12 1.2674999999999998e-12 1.2674999999999998e-12 1.2674999999999998e-12 1.2674999999999998e-12 1.2674999999999998e-12 1.2674999999999998e-12 6.337499999999999e-13 6.337499999999999e-13 1.2674999999999998e-12 1.2674999999999998e-12 1.2674999999999998e-12 1.2674999999999998e-12 1.2674999999999998e-12 1.2674999999999998e-12 1.2674999999999998e-12 1.2674999999999998e-12 1.2674999999999998e-12 1.2674999999999998e-12 1.2674999999999998e-12 1.2674999999999998e-12 1.2674999999999998e-12 1.2674999999999998e-12 1.2674999999999998e-12 1.2674999999999998e-12 1.2674999999999998e-12 1.2674999999999998e-12 1.2674999999999998e-12 6.337499999999999e-13 6.337499999999999e-13 1.2674999999999998e-12 1.2674999999999998e-12 1.2674999999999998e-12 1.2674999999999998e-12 1.2674999999999998e-12 1.2674999999999998e-12 1.2674999999999998e-12 1.2674999999999998e-12 1.2674999999999998e-12 1.2674999999999998e-12 1.2674999999999998e-12 1.2674999999999998e-12 1.2674999999999998e-12 1.2674999999999998e-12 1.2674999999999998e-12 1.2674999999999998e-12 1.2674999999999998e-12 1.2674999999999998e-12 1.2674999999999998e-12 6.337499999999999e-13 6.337499999999999e-13 1.2674999999999998e-12 1.2674999999999998e-12 1.2674999999999998e-12 1.2674999999999998e-12 1.2674999999999998e-12 1.2674999999999998e-12 1.2674999999999998e-12 1.2674999999999998e-12 1.2674999999999998e-12 1.2674999999999998e-12 1.2674999999999998e-12 1.2674999999999998e-12 1.2674999999999998e-12 1.2674999999999998e-12 1.2674999999999998e-12 1.2674999999999998e-12 1.2674999999999998e-12 1.2674999999999998e-12 1.2674999999999998e-12 6.337499999999999e-13 6.337499999999999e-13 1.2674999999999998e-12 1.2674999999999998e-12 1.2674999999999998e-12 1.2674999999999998e-12 1.2674999999999998e-12 1.2674999999999998e-12 1.2674999999999998e-12 1.2674999999999998e-12 1.2674999999999998e-12 1.2674999999999998e-12 1.2674999999999998e-12 1.2674999999999998e-12 1.2674999999999998e-12 1.2674999999999998e-12 1.2674999999999998e-12 1.2674999999999998e-12 1.2674999999999998e-12 1.2674999999999998e-12 1.2674999999999998e-12 6.337499999999999e-13 6.337499999999999e-13 1.2674999999999998e-12 1.2674999999999998e-12 1.2674999999999998e-12 1.2674999999999998e-12 1.2674999999999998e-12 1.2674999999999998e-12 1.2674999999999998e-12 1.2674999999999998e-12 1.2674999999999998e-12 1.2674999999999998e-12 1.2674999999999998e-12 1.2674999999999998e-12 1.2674999999999998e-12 1.2674999999999998e-12 1.2674999999999998e-12 1.2674999999999998e-12 1.2674999999999998e-12 1.2674999999999998e-12 1.2674999999999998e-12 6.337499999999999e-13 6.337499999999999e-13 1.2674999999999998e-12 1.2674999999999998e-12 1.2674999999999998e-12 1.2674999999999998e-12 1.2674999999999998e-12 1.2674999999999998e-12 1.2674999999999998e-12 1.2674999999999998e-12 1.2674999999999998e-12 1.2674999999999998e-12 1.2674999999999998e-12 1.2674999999999998e-12 1.2674999999999998e-12 1.2674999999999998e-12 1.2674999999999998e-12 1.2674999999999998e-12 1.2674999999999998e-12 1.2674999999999998e-12 1.2674999999999998e-12 6.337499999999999e-13 6.337499999999999e-13 1.2674999999999998e-12 1.2674999999999998e-12 1.2674999999999998e-12 1.2674999999999998e-12 1.2674999999999998e-12 1.2674999999999998e-12 1.2674999999999998e-12 1.2674999999999998e-12 1.2674999999999998e-12 1.2674999999999998e-12 1.2674999999999998e-12 1.2674999999999998e-12 1.2674999999999998e-12 1.2674999999999998e-12 1.2674999999999998e-12 1.2674999999999998e-12 1.2674999999999998e-12 1.2674999999999998e-12 1.2674999999999998e-12 6.337499999999999e-13 6.337499999999999e-13 1.2674999999999998e-12 1.2674999999999998e-12 1.2674999999999998e-12 1.2674999999999998e-12 1.2674999999999998e-12 1.2674999999999998e-12 1.2674999999999998e-12 1.2674999999999998e-12 1.2674999999999998e-12 1.2674999999999998e-12 1.2674999999999998e-12 1.2674999999999998e-12 1.2674999999999998e-12 1.2674999999999998e-12 1.2674999999999998e-12 1.2674999999999998e-12 1.2674999999999998e-12 1.2674999999999998e-12 1.2674999999999998e-12 6.337499999999999e-13 6.337499999999999e-13 1.2674999999999998e-12 1.2674999999999998e-12 1.2674999999999998e-12 1.2674999999999998e-12 1.2674999999999998e-12 1.2674999999999998e-12 1.2674999999999998e-12 1.2674999999999998e-12 1.2674999999999998e-12 1.2674999999999998e-12 1.2674999999999998e-12 1.2674999999999998e-12 1.2674999999999998e-12 1.2674999999999998e-12 1.2674999999999998e-12 1.2674999999999998e-12 1.2674999999999998e-12 1.2674999999999998e-12 1.2674999999999998e-12 6.337499999999999e-13 6.337499999999999e-13 1.2674999999999998e-12 1.2674999999999998e-12 1.2674999999999998e-12 1.2674999999999998e-12 1.2674999999999998e-12 1.2674999999999998e-12 1.2674999999999998e-12 1.2674999999999998e-12 1.2674999999999998e-12 1.2674999999999998e-12 1.2674999999999998e-12 1.2674999999999998e-12 1.2674999999999998e-12 1.2674999999999998e-12 1.2674999999999998e-12 1.2674999999999998e-12 1.2674999999999998e-12 1.2674999999999998e-12 1.2674999999999998e-12 6.337499999999999e-13 6.337499999999999e-13 1.2674999999999998e-12 1.2674999999999998e-12 1.2674999999999998e-12 1.2674999999999998e-12 1.2674999999999998e-12 1.2674999999999998e-12 1.2674999999999998e-12 1.2674999999999998e-12 1.2674999999999998e-12 1.2674999999999998e-12 1.2674999999999998e-12 1.2674999999999998e-12 1.2674999999999998e-12 1.2674999999999998e-12 1.2674999999999998e-12 1.2674999999999998e-12 1.2674999999999998e-12 1.2674999999999998e-12 1.2674999999999998e-12 6.337499999999999e-13 6.337499999999999e-13 1.2674999999999998e-12 1.2674999999999998e-12 1.2674999999999998e-12 1.2674999999999998e-12 1.2674999999999998e-12 1.2674999999999998e-12 1.2674999999999998e-12 1.2674999999999998e-12 1.2674999999999998e-12 1.2674999999999998e-12 1.2674999999999998e-12 1.2674999999999998e-12 1.2674999999999998e-12 1.2674999999999998e-12 1.2674999999999998e-12 1.2674999999999998e-12 1.2674999999999998e-12 1.2674999999999998e-12 1.2674999999999998e-12 6.337499999999999e-13 6.337499999999999e-13 1.2674999999999998e-12 1.2674999999999998e-12 1.2674999999999998e-12 1.2674999999999998e-12 1.2674999999999998e-12 1.2674999999999998e-12 1.2674999999999998e-12 1.2674999999999998e-12 1.2674999999999998e-12 1.2674999999999998e-12 1.2674999999999998e-12 1.2674999999999998e-12 1.2674999999999998e-12 1.2674999999999998e-12 1.2674999999999998e-12 1.2674999999999998e-12 1.2674999999999998e-12 1.2674999999999998e-12 1.2674999999999998e-12 6.337499999999999e-13 3.1687499999999995e-13 6.337499999999999e-13 6.337499999999999e-13 6.337499999999999e-13 6.337499999999999e-13 6.337499999999999e-13 6.337499999999999e-13 6.337499999999999e-13 6.337499999999999e-13 6.337499999999999e-13 6.337499999999999e-13 6.337499999999999e-13 6.337499999999999e-13 6.337499999999999e-13 6.337499999999999e-13 6.337499999999999e-13 6.337499999999999e-13 6.337499999999999e-13 6.337499999999999e-13 6.337499999999999e-13 3.1687499999999995e-13 6.337499999999999e-13 1.2674999999999998e-12 1.2674999999999998e-12 1.2674999999999998e-12 1.2674999999999998e-12 1.2674999999999998e-12 1.2674999999999998e-12 1.2674999999999998e-12 1.2674999999999998e-12 1.2674999999999998e-12 1.2674999999999998e-12 1.2674999999999998e-12 1.2674999999999998e-12 1.2674999999999998e-12 1.2674999999999998e-12 1.2674999999999998e-12 1.2674999999999998e-12 1.2674999999999998e-12 1.2674999999999998e-12 1.2674999999999998e-12 6.337499999999999e-13 1.2674999999999998e-12 2.5349999999999996e-12 2.5349999999999996e-12 2.5349999999999996e-12 2.5349999999999996e-12 2.5349999999999996e-12 2.5349999999999996e-12 2.5349999999999996e-12 2.5349999999999996e-12 2.5349999999999996e-12 2.5349999999999996e-12 2.5349999999999996e-12 2.5349999999999996e-12 2.5349999999999996e-12 2.5349999999999996e-12 2.5349999999999996e-12 2.5349999999999996e-12 2.5349999999999996e-12 2.5349999999999996e-12 2.5349999999999996e-12 1.2674999999999998e-12 1.2674999999999998e-12 2.5349999999999996e-12 2.5349999999999996e-12 2.5349999999999996e-12 2.5349999999999996e-12 2.5349999999999996e-12 2.5349999999999996e-12 2.5349999999999996e-12 2.5349999999999996e-12 2.5349999999999996e-12 2.5349999999999996e-12 2.5349999999999996e-12 2.5349999999999996e-12 2.5349999999999996e-12 2.5349999999999996e-12 2.5349999999999996e-12 2.5349999999999996e-12 2.5349999999999996e-12 2.5349999999999996e-12 2.5349999999999996e-12 1.2674999999999998e-12 1.2674999999999998e-12 2.5349999999999996e-12 2.5349999999999996e-12 2.5349999999999996e-12 2.5349999999999996e-12 2.5349999999999996e-12 2.5349999999999996e-12 2.5349999999999996e-12 2.5349999999999996e-12 2.5349999999999996e-12 2.5349999999999996e-12 2.5349999999999996e-12 2.5349999999999996e-12 2.5349999999999996e-12 2.5349999999999996e-12 2.5349999999999996e-12 2.5349999999999996e-12 2.5349999999999996e-12 2.5349999999999996e-12 2.5349999999999996e-12 1.2674999999999998e-12 1.2674999999999998e-12 2.5349999999999996e-12 2.5349999999999996e-12 2.5349999999999996e-12 2.5349999999999996e-12 2.5349999999999996e-12 2.5349999999999996e-12 2.5349999999999996e-12 2.5349999999999996e-12 2.5349999999999996e-12 2.5349999999999996e-12 2.5349999999999996e-12 2.5349999999999996e-12 2.5349999999999996e-12 2.5349999999999996e-12 2.5349999999999996e-12 2.5349999999999996e-12 2.5349999999999996e-12 2.5349999999999996e-12 2.5349999999999996e-12 1.2674999999999998e-12 1.2674999999999998e-12 2.5349999999999996e-12 2.5349999999999996e-12 2.5349999999999996e-12 2.5349999999999996e-12 2.5349999999999996e-12 2.5349999999999996e-12 2.5349999999999996e-12 2.5349999999999996e-12 2.5349999999999996e-12 2.5349999999999996e-12 2.5349999999999996e-12 2.5349999999999996e-12 2.5349999999999996e-12 2.5349999999999996e-12 2.5349999999999996e-12 2.5349999999999996e-12 2.5349999999999996e-12 2.5349999999999996e-12 2.5349999999999996e-12 1.2674999999999998e-12 1.2674999999999998e-12 2.5349999999999996e-12 2.5349999999999996e-12 2.5349999999999996e-12 2.5349999999999996e-12 2.5349999999999996e-12 2.5349999999999996e-12 2.5349999999999996e-12 2.5349999999999996e-12 2.5349999999999996e-12 2.5349999999999996e-12 2.5349999999999996e-12 2.5349999999999996e-12 2.5349999999999996e-12 2.5349999999999996e-12 2.5349999999999996e-12 2.5349999999999996e-12 2.5349999999999996e-12 2.5349999999999996e-12 2.5349999999999996e-12 1.2674999999999998e-12 1.2674999999999998e-12 2.5349999999999996e-12 2.5349999999999996e-12 2.5349999999999996e-12 2.5349999999999996e-12 2.5349999999999996e-12 2.5349999999999996e-12 2.5349999999999996e-12 2.5349999999999996e-12 2.5349999999999996e-12 2.5349999999999996e-12 2.5349999999999996e-12 2.5349999999999996e-12 2.5349999999999996e-12 2.5349999999999996e-12 2.5349999999999996e-12 2.5349999999999996e-12 2.5349999999999996e-12 2.5349999999999996e-12 2.5349999999999996e-12 1.2674999999999998e-12 1.2674999999999998e-12 2.5349999999999996e-12 2.5349999999999996e-12 2.5349999999999996e-12 2.5349999999999996e-12 2.5349999999999996e-12 2.5349999999999996e-12 2.5349999999999996e-12 2.5349999999999996e-12 2.5349999999999996e-12 2.5349999999999996e-12 2.5349999999999996e-12 2.5349999999999996e-12 2.5349999999999996e-12 2.5349999999999996e-12 2.5349999999999996e-12 2.5349999999999996e-12 2.5349999999999996e-12 2.5349999999999996e-12 2.5349999999999996e-12 1.2674999999999998e-12 1.2674999999999998e-12 2.5349999999999996e-12 2.5349999999999996e-12 2.5349999999999996e-12 2.5349999999999996e-12 2.5349999999999996e-12 2.5349999999999996e-12 2.5349999999999996e-12 2.5349999999999996e-12 2.5349999999999996e-12 2.5349999999999996e-12 2.5349999999999996e-12 2.5349999999999996e-12 2.5349999999999996e-12 2.5349999999999996e-12 2.5349999999999996e-12 2.5349999999999996e-12 2.5349999999999996e-12 2.5349999999999996e-12 2.5349999999999996e-12 1.2674999999999998e-12 1.2674999999999998e-12 2.5349999999999996e-12 2.5349999999999996e-12 2.5349999999999996e-12 2.5349999999999996e-12 2.5349999999999996e-12 2.5349999999999996e-12 2.5349999999999996e-12 2.5349999999999996e-12 2.5349999999999996e-12 2.5349999999999996e-12 2.5349999999999996e-12 2.5349999999999996e-12 2.5349999999999996e-12 2.5349999999999996e-12 2.5349999999999996e-12 2.5349999999999996e-12 2.5349999999999996e-12 2.5349999999999996e-12 2.5349999999999996e-12 1.2674999999999998e-12 1.2674999999999998e-12 2.5349999999999996e-12 2.5349999999999996e-12 2.5349999999999996e-12 2.5349999999999996e-12 2.5349999999999996e-12 2.5349999999999996e-12 2.5349999999999996e-12 2.5349999999999996e-12 2.5349999999999996e-12 2.5349999999999996e-12 2.5349999999999996e-12 2.5349999999999996e-12 2.5349999999999996e-12 2.5349999999999996e-12 2.5349999999999996e-12 2.5349999999999996e-12 2.5349999999999996e-12 2.5349999999999996e-12 2.5349999999999996e-12 1.2674999999999998e-12 1.2674999999999998e-12 2.5349999999999996e-12 2.5349999999999996e-12 2.5349999999999996e-12 2.5349999999999996e-12 2.5349999999999996e-12 2.5349999999999996e-12 2.5349999999999996e-12 2.5349999999999996e-12 2.5349999999999996e-12 2.5349999999999996e-12 2.5349999999999996e-12 2.5349999999999996e-12 2.5349999999999996e-12 2.5349999999999996e-12 2.5349999999999996e-12 2.5349999999999996e-12 2.5349999999999996e-12 2.5349999999999996e-12 2.5349999999999996e-12 1.2674999999999998e-12 1.2674999999999998e-12 2.5349999999999996e-12 2.5349999999999996e-12 2.5349999999999996e-12 2.5349999999999996e-12 2.5349999999999996e-12 2.5349999999999996e-12 2.5349999999999996e-12 2.5349999999999996e-12 2.5349999999999996e-12 2.5349999999999996e-12 2.5349999999999996e-12 2.5349999999999996e-12 2.5349999999999996e-12 2.5349999999999996e-12 2.5349999999999996e-12 2.5349999999999996e-12 2.5349999999999996e-12 2.5349999999999996e-12 2.5349999999999996e-12 1.2674999999999998e-12 1.2674999999999998e-12 2.5349999999999996e-12 2.5349999999999996e-12 2.5349999999999996e-12 2.5349999999999996e-12 2.5349999999999996e-12 2.5349999999999996e-12 2.5349999999999996e-12 2.5349999999999996e-12 2.5349999999999996e-12 2.5349999999999996e-12 2.5349999999999996e-12 2.5349999999999996e-12 2.5349999999999996e-12 2.5349999999999996e-12 2.5349999999999996e-12 2.5349999999999996e-12 2.5349999999999996e-12 2.5349999999999996e-12 2.5349999999999996e-12 1.2674999999999998e-12 1.2674999999999998e-12 2.5349999999999996e-12 2.5349999999999996e-12 2.5349999999999996e-12 2.5349999999999996e-12 2.5349999999999996e-12 2.5349999999999996e-12 2.5349999999999996e-12 2.5349999999999996e-12 2.5349999999999996e-12 2.5349999999999996e-12 2.5349999999999996e-12 2.5349999999999996e-12 2.5349999999999996e-12 2.5349999999999996e-12 2.5349999999999996e-12 2.5349999999999996e-12 2.5349999999999996e-12 2.5349999999999996e-12 2.5349999999999996e-12 1.2674999999999998e-12 1.2674999999999998e-12 2.5349999999999996e-12 2.5349999999999996e-12 2.5349999999999996e-12 2.5349999999999996e-12 2.5349999999999996e-12 2.5349999999999996e-12 2.5349999999999996e-12 2.5349999999999996e-12 2.5349999999999996e-12 2.5349999999999996e-12 2.5349999999999996e-12 2.5349999999999996e-12 2.5349999999999996e-12 2.5349999999999996e-12 2.5349999999999996e-12 2.5349999999999996e-12 2.5349999999999996e-12 2.5349999999999996e-12 2.5349999999999996e-12 1.2674999999999998e-12 1.2674999999999998e-12 2.5349999999999996e-12 2.5349999999999996e-12 2.5349999999999996e-12 2.5349999999999996e-12 2.5349999999999996e-12 2.5349999999999996e-12 2.5349999999999996e-12 2.5349999999999996e-12 2.5349999999999996e-12 2.5349999999999996e-12 2.5349999999999996e-12 2.5349999999999996e-12 2.5349999999999996e-12 2.5349999999999996e-12 2.5349999999999996e-12 2.5349999999999996e-12 2.5349999999999996e-12 2.5349999999999996e-12 2.5349999999999996e-12 1.2674999999999998e-12 1.2674999999999998e-12 2.5349999999999996e-12 2.5349999999999996e-12 2.5349999999999996e-12 2.5349999999999996e-12 2.5349999999999996e-12 2.5349999999999996e-12 2.5349999999999996e-12 2.5349999999999996e-12 2.5349999999999996e-12 2.5349999999999996e-12 2.5349999999999996e-12 2.5349999999999996e-12 2.5349999999999996e-12 2.5349999999999996e-12 2.5349999999999996e-12 2.5349999999999996e-12 2.5349999999999996e-12 2.5349999999999996e-12 2.5349999999999996e-12 1.2674999999999998e-12 1.2674999999999998e-12 2.5349999999999996e-12 2.5349999999999996e-12 2.5349999999999996e-12 2.5349999999999996e-12 2.5349999999999996e-12 2.5349999999999996e-12 2.5349999999999996e-12 2.5349999999999996e-12 2.5349999999999996e-12 2.5349999999999996e-12 2.5349999999999996e-12 2.5349999999999996e-12 2.5349999999999996e-12 2.5349999999999996e-12 2.5349999999999996e-12 2.5349999999999996e-12 2.5349999999999996e-12 2.5349999999999996e-12 2.5349999999999996e-12 1.2674999999999998e-12 6.337499999999999e-13 1.2674999999999998e-12 1.2674999999999998e-12 1.2674999999999998e-12 1.2674999999999998e-12 1.2674999999999998e-12 1.2674999999999998e-12 1.2674999999999998e-12 1.2674999999999998e-12 1.2674999999999998e-12 1.2674999999999998e-12 1.2674999999999998e-12 1.2674999999999998e-12 1.2674999999999998e-12 1.2674999999999998e-12 1.2674999999999998e-12 1.2674999999999998e-12 1.2674999999999998e-12 1.2674999999999998e-12 1.2674999999999998e-12 6.337499999999999e-13 6.337499999999999e-13 1.2674999999999998e-12 1.2674999999999998e-12 1.2674999999999998e-12 1.2674999999999998e-12 1.2674999999999998e-12 1.2674999999999998e-12 1.2674999999999998e-12 1.2674999999999998e-12 1.2674999999999998e-12 1.2674999999999998e-12 1.2674999999999998e-12 1.2674999999999998e-12 1.2674999999999998e-12 1.2674999999999998e-12 1.2674999999999998e-12 1.2674999999999998e-12 1.2674999999999998e-12 1.2674999999999998e-12 1.2674999999999998e-12 6.337499999999999e-13 1.2674999999999998e-12 2.5349999999999996e-12 2.5349999999999996e-12 2.5349999999999996e-12 2.5349999999999996e-12 2.5349999999999996e-12 2.5349999999999996e-12 2.5349999999999996e-12 2.5349999999999996e-12 2.5349999999999996e-12 2.5349999999999996e-12 2.5349999999999996e-12 2.5349999999999996e-12 2.5349999999999996e-12 2.5349999999999996e-12 2.5349999999999996e-12 2.5349999999999996e-12 2.5349999999999996e-12 2.5349999999999996e-12 2.5349999999999996e-12 1.2674999999999998e-12 1.2674999999999998e-12 2.5349999999999996e-12 2.5349999999999996e-12 2.5349999999999996e-12 2.5349999999999996e-12 2.5349999999999996e-12 2.5349999999999996e-12 2.5349999999999996e-12 2.5349999999999996e-12 2.5349999999999996e-12 2.5349999999999996e-12 2.5349999999999996e-12 2.5349999999999996e-12 2.5349999999999996e-12 2.5349999999999996e-12 2.5349999999999996e-12 2.5349999999999996e-12 2.5349999999999996e-12 2.5349999999999996e-12 2.5349999999999996e-12 1.2674999999999998e-12 1.2674999999999998e-12 2.5349999999999996e-12 2.5349999999999996e-12 2.5349999999999996e-12 2.5349999999999996e-12 2.5349999999999996e-12 2.5349999999999996e-12 2.5349999999999996e-12 2.5349999999999996e-12 2.5349999999999996e-12 2.5349999999999996e-12 2.5349999999999996e-12 2.5349999999999996e-12 2.5349999999999996e-12 2.5349999999999996e-12 2.5349999999999996e-12 2.5349999999999996e-12 2.5349999999999996e-12 2.5349999999999996e-12 2.5349999999999996e-12 1.2674999999999998e-12 1.2674999999999998e-12 2.5349999999999996e-12 2.5349999999999996e-12 2.5349999999999996e-12 2.5349999999999996e-12 2.5349999999999996e-12 2.5349999999999996e-12 2.5349999999999996e-12 2.5349999999999996e-12 2.5349999999999996e-12 2.5349999999999996e-12 2.5349999999999996e-12 2.5349999999999996e-12 2.5349999999999996e-12 2.5349999999999996e-12 2.5349999999999996e-12 2.5349999999999996e-12 2.5349999999999996e-12 2.5349999999999996e-12 2.5349999999999996e-12 1.2674999999999998e-12 1.2674999999999998e-12 2.5349999999999996e-12 2.5349999999999996e-12 2.5349999999999996e-12 2.5349999999999996e-12 2.5349999999999996e-12 2.5349999999999996e-12 2.5349999999999996e-12 2.5349999999999996e-12 2.5349999999999996e-12 2.5349999999999996e-12 2.5349999999999996e-12 2.5349999999999996e-12 2.5349999999999996e-12 2.5349999999999996e-12 2.5349999999999996e-12 2.5349999999999996e-12 2.5349999999999996e-12 2.5349999999999996e-12 2.5349999999999996e-12 1.2674999999999998e-12 1.2674999999999998e-12 2.5349999999999996e-12 2.5349999999999996e-12 2.5349999999999996e-12 2.5349999999999996e-12 2.5349999999999996e-12 2.5349999999999996e-12 2.5349999999999996e-12 2.5349999999999996e-12 2.5349999999999996e-12 2.5349999999999996e-12 2.5349999999999996e-12 2.5349999999999996e-12 2.5349999999999996e-12 2.5349999999999996e-12 2.5349999999999996e-12 2.5349999999999996e-12 2.5349999999999996e-12 2.5349999999999996e-12 2.5349999999999996e-12 1.2674999999999998e-12 1.2674999999999998e-12 2.5349999999999996e-12 2.5349999999999996e-12 2.5349999999999996e-12 2.5349999999999996e-12 2.5349999999999996e-12 2.5349999999999996e-12 2.5349999999999996e-12 2.5349999999999996e-12 2.5349999999999996e-12 2.5349999999999996e-12 2.5349999999999996e-12 2.5349999999999996e-12 2.5349999999999996e-12 2.5349999999999996e-12 2.5349999999999996e-12 2.5349999999999996e-12 2.5349999999999996e-12 2.5349999999999996e-12 2.5349999999999996e-12 1.2674999999999998e-12 1.2674999999999998e-12 2.5349999999999996e-12 2.5349999999999996e-12 2.5349999999999996e-12 2.5349999999999996e-12 2.5349999999999996e-12 2.5349999999999996e-12 2.5349999999999996e-12 2.5349999999999996e-12 2.5349999999999996e-12 2.5349999999999996e-12 2.5349999999999996e-12 2.5349999999999996e-12 2.5349999999999996e-12 2.5349999999999996e-12 2.5349999999999996e-12 2.5349999999999996e-12 2.5349999999999996e-12 2.5349999999999996e-12 2.5349999999999996e-12 1.2674999999999998e-12 1.2674999999999998e-12 2.5349999999999996e-12 2.5349999999999996e-12 2.5349999999999996e-12 2.5349999999999996e-12 2.5349999999999996e-12 2.5349999999999996e-12 2.5349999999999996e-12 2.5349999999999996e-12 2.5349999999999996e-12 2.5349999999999996e-12 2.5349999999999996e-12 2.5349999999999996e-12 2.5349999999999996e-12 2.5349999999999996e-12 2.5349999999999996e-12 2.5349999999999996e-12 2.5349999999999996e-12 2.5349999999999996e-12 2.5349999999999996e-12 1.2674999999999998e-12 1.2674999999999998e-12 2.5349999999999996e-12 2.5349999999999996e-12 2.5349999999999996e-12 2.5349999999999996e-12 2.5349999999999996e-12 2.5349999999999996e-12 2.5349999999999996e-12 2.5349999999999996e-12 2.5349999999999996e-12 2.5349999999999996e-12 2.5349999999999996e-12 2.5349999999999996e-12 2.5349999999999996e-12 2.5349999999999996e-12 2.5349999999999996e-12 2.5349999999999996e-12 2.5349999999999996e-12 2.5349999999999996e-12 2.5349999999999996e-12 1.2674999999999998e-12 1.2674999999999998e-12 2.5349999999999996e-12 2.5349999999999996e-12 2.5349999999999996e-12 2.5349999999999996e-12 2.5349999999999996e-12 2.5349999999999996e-12 2.5349999999999996e-12 2.5349999999999996e-12 2.5349999999999996e-12 2.5349999999999996e-12 2.5349999999999996e-12 2.5349999999999996e-12 2.5349999999999996e-12 2.5349999999999996e-12 2.5349999999999996e-12 2.5349999999999996e-12 2.5349999999999996e-12 2.5349999999999996e-12 2.5349999999999996e-12 1.2674999999999998e-12 1.2674999999999998e-12 2.5349999999999996e-12 2.5349999999999996e-12 2.5349999999999996e-12 2.5349999999999996e-12 2.5349999999999996e-12 2.5349999999999996e-12 2.5349999999999996e-12 2.5349999999999996e-12 2.5349999999999996e-12 2.5349999999999996e-12 2.5349999999999996e-12 2.5349999999999996e-12 2.5349999999999996e-12 2.5349999999999996e-12 2.5349999999999996e-12 2.5349999999999996e-12 2.5349999999999996e-12 2.5349999999999996e-12 2.5349999999999996e-12 1.2674999999999998e-12 1.2674999999999998e-12 2.5349999999999996e-12 2.5349999999999996e-12 2.5349999999999996e-12 2.5349999999999996e-12 2.5349999999999996e-12 2.5349999999999996e-12 2.5349999999999996e-12 2.5349999999999996e-12 2.5349999999999996e-12 2.5349999999999996e-12 2.5349999999999996e-12 2.5349999999999996e-12 2.5349999999999996e-12 2.5349999999999996e-12 2.5349999999999996e-12 2.5349999999999996e-12 2.5349999999999996e-12 2.5349999999999996e-12 2.5349999999999996e-12 1.2674999999999998e-12 1.2674999999999998e-12 2.5349999999999996e-12 2.5349999999999996e-12 2.5349999999999996e-12 2.5349999999999996e-12 2.5349999999999996e-12 2.5349999999999996e-12 2.5349999999999996e-12 2.5349999999999996e-12 2.5349999999999996e-12 2.5349999999999996e-12 2.5349999999999996e-12 2.5349999999999996e-12 2.5349999999999996e-12 2.5349999999999996e-12 2.5349999999999996e-12 2.5349999999999996e-12 2.5349999999999996e-12 2.5349999999999996e-12 2.5349999999999996e-12 1.2674999999999998e-12 1.2674999999999998e-12 2.5349999999999996e-12 2.5349999999999996e-12 2.5349999999999996e-12 2.5349999999999996e-12 2.5349999999999996e-12 2.5349999999999996e-12 2.5349999999999996e-12 2.5349999999999996e-12 2.5349999999999996e-12 2.5349999999999996e-12 2.5349999999999996e-12 2.5349999999999996e-12 2.5349999999999996e-12 2.5349999999999996e-12 2.5349999999999996e-12 2.5349999999999996e-12 2.5349999999999996e-12 2.5349999999999996e-12 2.5349999999999996e-12 1.2674999999999998e-12 1.2674999999999998e-12 2.5349999999999996e-12 2.5349999999999996e-12 2.5349999999999996e-12 2.5349999999999996e-12 2.5349999999999996e-12 2.5349999999999996e-12 2.5349999999999996e-12 2.5349999999999996e-12 2.5349999999999996e-12 2.5349999999999996e-12 2.5349999999999996e-12 2.5349999999999996e-12 2.5349999999999996e-12 2.5349999999999996e-12 2.5349999999999996e-12 2.5349999999999996e-12 2.5349999999999996e-12 2.5349999999999996e-12 2.5349999999999996e-12 1.2674999999999998e-12 1.2674999999999998e-12 2.5349999999999996e-12 2.5349999999999996e-12 2.5349999999999996e-12 2.5349999999999996e-12 2.5349999999999996e-12 2.5349999999999996e-12 2.5349999999999996e-12 2.5349999999999996e-12 2.5349999999999996e-12 2.5349999999999996e-12 2.5349999999999996e-12 2.5349999999999996e-12 2.5349999999999996e-12 2.5349999999999996e-12 2.5349999999999996e-12 2.5349999999999996e-12 2.5349999999999996e-12 2.5349999999999996e-12 2.5349999999999996e-12 1.2674999999999998e-12 1.2674999999999998e-12 2.5349999999999996e-12 2.5349999999999996e-12 2.5349999999999996e-12 2.5349999999999996e-12 2.5349999999999996e-12 2.5349999999999996e-12 2.5349999999999996e-12 2.5349999999999996e-12 2.5349999999999996e-12 2.5349999999999996e-12 2.5349999999999996e-12 2.5349999999999996e-12 2.5349999999999996e-12 2.5349999999999996e-12 2.5349999999999996e-12 2.5349999999999996e-12 2.5349999999999996e-12 2.5349999999999996e-12 2.5349999999999996e-12 1.2674999999999998e-12 1.2674999999999998e-12 2.5349999999999996e-12 2.5349999999999996e-12 2.5349999999999996e-12 2.5349999999999996e-12 2.5349999999999996e-12 2.5349999999999996e-12 2.5349999999999996e-12 2.5349999999999996e-12 2.5349999999999996e-12 2.5349999999999996e-12 2.5349999999999996e-12 2.5349999999999996e-12 2.5349999999999996e-12 2.5349999999999996e-12 2.5349999999999996e-12 2.53499999999