<VTKFile type="ImageData">
<ImageData Origin="-0.1 -0.1 0.0" Spacing="0.01 0.01 0.01" WholeExtent="0 20 0 20 0 40">
<PointData>
<DataArray Name="NodeVol" NumberOfComponents="1" format="ascii" type="Float64">
1.2500000000000002e-07 2.5000000000000004e-07 2.5000000000000004e-07 2.5000000000000004e-07 2.5000000000000004e-07 2.5000000000000004e-07 2.5000000000000004e-07 2.5000000000000004e-07 2.5000000000000004e-07 2.5000000000000004e-07 2.5000000000000004e-07 2.5000000000000004e-07 2.5000000000000004e-07 2.5000000000000004e-07 2.5000000000000004e-07 2.5000000000000004e-07 2.5000000000000004e-07 2.5000000000000004e-07 2.5000000000000004e-07 2.5000000000000004e-07 1.2500000000000002e-07 2.5000000000000004e-07 5.000000000000001e-07 5.000000000000001e-07 5.000000000000001e-07 5.000000000000001e-07 5.000000000000001e-07 5.000000000000001e-07 5.000000000000001e-07 5.000000000000001e-07 5.000000000000001e-07 5.000000000000001e-07 5.000000000000001e-07 5.000000000000001e-07 5.000000000000001e-07 5.000000000000001e-07 5.000000000000001e-07 5.000000000000001e-07 5.000000000000001e-07 5.000000000000001e-07 5.000000000000001e-07 2.5000000000000004e-07 2.5000000000000004e-07 5.000000000000001e-07 5.000000000000001e-07 5.000000000000001e-07 5.000000000000001e-07 5.000000000000001e-07 5.000000000000001e-07 5.000000000000001e-07 5.000000000000001e-07 5.000000000000001e-07 5.000000000000001e-07 5.000000000000001e-07 5.000000000000001e-07 5.000000000000001e-07 5.000000000000001e-07 5.000000000000001e-07 5.000000000000001e-07 5.000000000000001e-07 5.000000000000001e-07 5.000000000000001e-07 2.5000000000000004e-07 2.5000000000000004e-07 5.000000000000001e-07 5.000000000000001e-07 5.000000000000001e-07 5.000000000000001e-07 5.000000000000001e-07 5.000000000000001e-07 5.000000000000001e-07 5.000000000000001e-07 5.000000000000001e-07 5.000000000000001e-07 5.000000000000001e-07 5.000000000000001e-07 5.000000000000001e-07 5.000000000000001e-07 5.000000000000001e-07 5.000000000000001e-07 5.000000000000001e-07 5.000000000000001e-07 5.000000000000001e-07 2.5000000000000004e-07 2.5000000000000004e-07 5.000000000000001e-07 5.000000000000001e-07 5.000000000000001e-07 5.000000000000001e-07 5.000000000000001e-07 5.000000000000001e-07 5.000000000000001e-07 5.000000000000001e-07 5.000000000000001e-07 5.000000000000001e-07 5.000000000000001e-07 5.000000000000001e-07 5.000000000000001e-07 5.000000000000001e-07 5.000000000000001e-07 5.000000000000001e-07 5.000000000000001e-07 5.000000000000001e-07 5.000000000000001e-07 2.5000000000000004e-07 2.5000000000000004e-07 5.000000000000001e-07 5.000000000000001e-07 5.000000000000001e-07 5.000000000000001e-07 5.000000000000001e-07 5.000000000000001e-07 5.000000000000001e-07 5.000000000000001e-07 5.000000000000001e-07 5.000000000000001e-07 5.000000000000001e-07 5.000000000000001e-07 5.000000000000001e-07 5.000000000000001e-07 5.000000000000001e-07 5.000000000000001e-07 5.000000000000001e-07 5.000000000000001e-07 5.000000000000001e-07 2.5000000000000004e-07 2.5000000000000004e-07 5.000000000000001e-07 5.000000000000001e-07 5.000000000000001e-07 5.000000000000001e-07 5.000000000000001e-07 5.000000000000001e-07 5.000000000000001e-07 5.000000000000001e-07 5.000000000000001e-07 5.000000000000001e-07 5.000000000000001e-07 5.000000000000001e-07 5.000000000000001e-07 5.000000000000001e-07 5.000000000000001e-07 5.000000000000001e-07 5.000000000000001e-07 5.000000000000001e-07 5.000000000000001e-07 2.5000000000000004e-07 2.5000000000000004e-07 5.000000000000001e-07 5.000000000000001e-07 5.000000000000001e-07 5.000000000000001e-07 5.000000000000001e-07 5.000000000000001e-07 5.000000000000001e-07 5.000000000000001e-07 5.000000000000001e-07 5.000000000000001e-07 5.000000000000001e-07 5.000000000000001e-07 5.000000000000001e-07 5.000000000000001e-07 5.000000000000001e-07 5.000000000000001e-07 5.000000000000001e-07 5.000000000000001e-07 5.000000000000001e-07 2.5000000000000004e-07 2.5000000000000004e-07 5.000000000000001e-07 5.000000000000001e-07 5.000000000000001e-07 5.000000000000001e-07 5.000000000000001e-07 5.000000000000001e-07 5.000000000000001e-07 5.000000000000001e-07 5.000000000000001e-07 5.000000000000001e-07 5.000000000000001e-07 5.000000000000001e-07 5.000000000000001e-07 5.000000000000001e-07 5.000000000000001e-07 5.000000000000001e-07 5.000000000000001e-07 5.000000000000001e-07 5.000000000000001e-07 2.5000000000000004e-07 2.5000000000000004e-07 5.000000000000001e-07 5.000000000000001e-07 5.000000000000001e-07 5.000000000000001e-07 5.000000000000001e-07 5.000000000000001e-07 5.000000000000001e-07 5.000000000000001e-07 5.000000000000001e-07 5.000000000000001e-07 5.000000000000001e-07 5.000000000000001e-07 5.000000000000001e-07 5.000000000000001e-07 5.000000000000001e-07 5.000000000000001e-07 5.000000000000001e-07 5.000000000000001e-07 5.000000000000001e-07 2.5000000000000004e-07 2.5000000000000004e-07 5.000000000000001e-07 5.000000000000001e-07 5.000000000000001e-07 5.000000000000001e-07 5.000000000000001e-07 5.000000000000001e-07 5.000000000000001e-07 5.000000000000001e-07 5.000000000000001e-07 5.000000000000001e-07 5.000000000000001e-07 5.000000000000001e-07 5.000000000000001e-07 5.000000000000001e-07 5.000000000000001e-07 5.000000000000001e-07 5.000000000000001e-07 5.000000000000001e-07 5.000000000000001e-07 2.5000000000000004e-07 2.5000000000000004e-07 5.000000000000001e-07 5.000000000000001e-07 5.000000000000001e-07 5.000000000000001e-07 5.000000000000001e-07 5.000000000000001e-07 5.000000000000001e-07 5.000000000000001e-07 5.000000000000001e-07 5.000000000000001e-07 5.000000000000001e-07 5.000000000000001e-07 5.000000000000001e-07 5.000000000000001e-07 5.000000000000001e-07 5.000000000000001e-07 5.000000000000001e-07 5.000000000000001e-07 5.000000000000001e-07 2.5000000000000004e-07 2.5000000000000004e-07 5.000000000000001e-07 5.000000000000001e-07 5.000000000000001e-07 5.000000000000001e-07 5.000000000000001e-07 5.000000000000001e-07 5.000000000000001e-07 5.000000000000001e-07 5.000000000000001e-07 5.000000000000001e-07 5.000000000000001e-07 5.000000000000001e-07 5.000000000000001e-07 5.000000000000001e-07 5.000000000000001e-07 5.000000000000001e-07 5.000000000000001e-07 5.000000000000001e-07 5.000000000000001e-07 2.5000000000000004e-07 2.5000000000000004e-07 5.000000000000001e-07 5.000000000000001e-07 5.000000000000001e-07 5.000000000000001e-07 5.000000000000001e-07 5.000000000000001e-07 5.000000000000001e-07 5.000000000000001e-07 5.000000000000001e-07 5.000000000000001e-07 5.000000000000001e-07 5.000000000000001e-07 5.000000000000001e-07 5.000000000000001e-07 5.000000000000001e-07 5.000000000000001e-07 5.000000000000001e-07 5.000000000000001e-07 5.000000000000001e-07 2.5000000000000004e-07 2.5000000000000004e-07 5.000000000000001e-07 5.000000000000001e-07 5.000000000000001e-07 5.000000000000001e-07 5.000000000000001e-07 5.000000000000001e-07 5.000000000000001e-07 5.000000000000001e-07 5.000000000000001e-07 5.000000000000001e-07 5.000000000000001e-07 5.000000000000001e-07 5.000000000000001e-07 5.000000000000001e-07 5.000000000000001e-07 5.000000000000001e-07 5.000000000000001e-07 5.000000000000001e-07 5.000000000000001e-07 2.5000000000000004e-07 2.5000000000000004e-07 5.000000000000001e-07 5.000000000000001e-07 5.000000000000001e-07 5.000000000000001e-07 5.000000000000001e-07 5.000000000000001e-07 5.000000000000001e-07 5.000000000000001e-07 5.000000000000001e-07 5.000000000000001e-07 5.000000000000001e-07 5.000000000000001e-07 5.000000000000001e-07 5.000000000000001e-07 5.000000000000001e-07 5.000000000000001e-07 5.000000000000001e-07 5.000000000000001e-07 5.000000000000001e-07 2.5000000000000004e-07 2.5000000000000004e-07 5.000000000000001e-07 5.000000000000001e-07 5.000000000000001e-07 5.000000000000001e-07 5.000000000000001e-07 5.000000000000001e-07 5.000000000000001e-07 5.000000000000001e-07 5.000000000000001e-07 5.000000000000001e-07 5.000000000000001e-07 5.000000000000001e-07 5.000000000000001e-07 5.000000000000001e-07 5.000000000000001e-07 5.000000000000001e-07 5.000000000000001e-07 5.000000000000001e-07 5.000000000000001e-07 2.5000000000000004e-07 2.5000000000000004e-07 5.000000000000001e-07 5.000000000000001e-07 5.000000000000001e-07 5.000000000000001e-07 5.000000000000001e-07 5.000000000000001e-07 5.000000000000001e-07 5.000000000000001e-07 5.000000000000001e-07 5.000000000000001e-07 5.000000000000001e-07 5.000000000000001e-07 5.000000000000001e-07 5.000000000000001e-07 5.000000000000001e-07 5.000000000000001e-07 5.000000000000001e-07 5.000000000000001e-07 5.000000000000001e-07 2.5000000000000004e-07 2.5000000000000004e-07 5.000000000000001e-07 5.000000000000001e-07 5.000000000000001e-07 5.000000000000001e-07 5.000000000000001e-07 5.000000000000001e-07 5.000000000000001e-07 5.000000000000001e-07 5.000000000000001e-07 5.000000000000001e-07 5.000000000000001e-07 5.000000000000001e-07 5.000000000000001e-07 5.000000000000001e-07 5.000000000000001e-07 5.000000000000001e-07 5.000000000000001e-07 5.000000000000001e-07 5.000000000000001e-07 2.5000000000000004e-07 2.5000000000000004e-07 5.000000000000001e-07 5.000000000000001e-07 5.000000000000001e-07 5.000000000000001e-07 5.000000000000001e-07 5.000000000000001e-07 5.000000000000001e-07 5.000000000000001e-07 5.000000000000001e-07 5.000000000000001e-07 5.000000000000001e-07 5.000000000000001e-07 5.000000000000001e-07 5.000000000000001e-07 5.000000000000001e-07 5.000000000000001e-07 5.000000000000001e-07 5.000000000000001e-07 5.000000000000001e-07 2.5000000000000004e-07 1.2500000000000002e-07 2.5000000000000004e-07 2.5000000000000004e-07 2.5000000000000004e-07 2.5000000000000004e-07 2.5000000000000004e-07 2.5000000000000004e-07 2.5000000000000004e-07 2.5000000000000004e-07 2.5000000000000004e-07 2.5000000000000004e-07 2.5000000000000004e-07 2.5000000000000004e-07 2.5000000000000004e-07 2.5000000000000004e-07 2.5000000000000004e-07 2.5000000000000004e-07 2.5000000000000004e-07 2.5000000000000004e-07 2.5000000000000004e-07 1.2500000000000002e-07 2.5000000000000004e-07 5.000000000000001e-07 5.000000000000001e-07 5.000000000000001e-07 5.000000000000001e-07 5.000000000000001e-07 5.000000000000001e-07 5.000000000000001e-07 5.000000000000001e-07 5.000000000000001e-07 5.000000000000001e-07 5.000000000000001e-07 5.000000000000001e-07 5.000000000000001e-07 5.000000000000001e-07 5.000000000000001e-07 5.000000000000001e-07 5.000000000000001e-07 5.000000000000001e-07 5.000000000000001e-07 2.5000000000000004e-07 5.000000000000001e-07 1.0000000000000002e-06 1.0000000000000002e-06 1.0000000000000002e-06 1.0000000000000002e-06 1.0000000000000002e-06 1.0000000000000002e-06 1.0000000000000002e-06 1.0000000000000002e-06 1.0000000000000002e-06 1.0000000000000002e-06 1.0000000000000002e-06 1.0000000000000002e-06 1.0000000000000002e-06 1.0000000000000002e-06 1.0000000000000002e-06 1.0000000000000002e-06 1.0000000000000002e-06 1.0000000000000002e-06 1.0000000000000002e-06 5.000000000000001e-07 5.000000000000001e-07 1.0000000000000002e-06 1.0000000000000002e-06 1.0000000000000002e-06 1.0000000000000002e-06 1.0000000000000002e-06 1.0000000000000002e-06 1.0000000000000002e-06 1.0000000000000002e-06 1.0000000000000002e-06 1.0000000000000002e-06 1.0000000000000002e-06 1.0000000000000002e-06 1.0000000000000002e-06 1.0000000000000002e-06 1.0000000000000002e-06 1.0000000000000002e-06 1.0000000000000002e-06 1.0000000000000002e-06 1.0000000000000002e-06 5.000000000000001e-07 5.000000000000001e-07 1.0000000000000002e-06 1.0000000000000002e-06 1.0000000000000002e-06 1.0000000000000002e-06 1.0000000000000002e-06 1.0000000000000002e-06 1.0000000000000002e-06 1.0000000000000002e-06 1.0000000000000002e-06 1.0000000000000002e-06 1.0000000000000002e-06 1.0000000000000002e-06 1.0000000000000002e-06 1.0000000000000002e-06 1.0000000000000002e-06 1.0000000000000002e-06 1.0000000000000002e-06 1.0000000000000002e-06 1.0000000000000002e-06 5.000000000000001e-07 5.000000000000001e-07 1.0000000000000002e-06 1.0000000000000002e-06 1.0000000000000002e-06 1.0000000000000002e-06 1.0000000000000002e-06 1.0000000000000002e-06 1.0000000000000002e-06 1.0000000000000002e-06 1.0000000000000002e-06 1.0000000000000002e-06 1.0000000000000002e-06 1.0000000000000002e-06 1.0000000000000002e-06 1.0000000000000002e-06 1.0000000000000002e-06 1.0000000000000002e-06 1.0000000000000002e-06 1.0000000000000002e-06 1.0000000000000002e-06 5.000000000000001e-07 5.000000000000001e-07 1.0000000000000002e-06 1.0000000000000002e-06 1.0000000000000002e-06 1.0000000000000002e-06 1.0000000000000002e-06 1.0000000000000002e-06 1.0000000000000002e-06 1.0000000000000002e-06 1.0000000000000002e-06 1.0000000000000002e-06 1.0000000000000002e-06 1.0000000000000002e-06 1.0000000000000002e-06 1.0000000000000002e-06 1.0000000000000002e-06 1.0000000000000002e-06 1.0000000000000002e-06 1.0000000000000002e-06 1.0000000000000002e-06 5.000000000000001e-07 5.000000000000001e-07 1.0000000000000002e-06 1.0000000000000002e-06 1.0000000000000002e-06 1.0000000000000002e-06 1.0000000000000002e-06 1.0000000000000002e-06 1.0000000000000002e-06 1.0000000000000002e-06 1.0000000000000002e-06 1.0000000000000002e-06 1.0000000000000002e-06 1.0000000000000002e-06 1.0000000000000002e-06 1.0000000000000002e-06 1.0000000000000002e-06 1.0000000000000002e-06 1.0000000000000002e-06 1.0000000000000002e-06 1.0000000000000002e-06 5.000000000000001e-07 5.000000000000001e-07 1.0000000000000002e-06 1.0000000000000002e-06 1.0000000000000002e-06 1.0000000000000002e-06 1.0000000000000002e-06 1.0000000000000002e-06 1.0000000000000002e-06 1.0000000000000002e-06 1.0000000000000002e-06 1.0000000000000002e-06 1.0000000000000002e-06 1.0000000000000002e-06 1.0000000000000002e-06 1.0000000000000002e-06 1.0000000000000002e-06 1.0000000000000002e-06 1.0000000000000002e-06 1.0000000000000002e-06 1.0000000000000002e-06 5.000000000000001e-07 5.000000000000001e-07 1.0000000000000002e-06 1.0000000000000002e-06 1.0000000000000002e-06 1.0000000000000002e-06 1.0000000000000002e-06 1.0000000000000002e-06 1.0000000000000002e-06 1.0000000000000002e-06 1.0000000000000002e-06 1.0000000000000002e-06 1.0000000000000002e-06 1.0000000000000002e-06 1.0000000000000002e-06 1.0000000000000002e-06 1.0000000000000002e-06 1.0000000000000002e-06 1.0000000000000002e-06 1.0000000000000002e-06 1.0000000000000002e-06 5.000000000000001e-07 5.000000000000001e-07 1.0000000000000002e-06 1.0000000000000002e-06 1.0000000000000002e-06 1.0000000000000002e-06 1.0000000000000002e-06 1.0000000000000002e-06 1.0000000000000002e-06 1.0000000000000002e-06 1.0000000000000002e-06 1.0000000000000002e-06 1.0000000000000002e-06 1.0000000000000002e-06 1.0000000000000002e-06 1.0000000000000002e-06 1.0000000000000002e-06 1.0000000000000002e-06 1.0000000000000002e-06 1.0000000000000002e-06 1.0000000000000002e-06 5.000000000000001e-07 5.000000000000001e-07 1.0000000000000002e-06 1.0000000000000002e-06 1.0000000000000002e-06 1.0000000000000002e-06 1.0000000000000002e-06 1.0000000000000002e-06 1.0000000000000002e-06 1.0000000000000002e-06 1.0000000000000002e-06 1.0000000000000002e-06 1.0000000000000002e-06 1.0000000000000002e-06 1.0000000000000002e-06 1.0000000000000002e-06 1.0000000000000002e-06 1.0000000000000002e-06 1.0000000000000002e-06 1.0000000000000002e-06 1.0000000000000002e-06 5.000000000000001e-07 5.000000000000001e-07 1.0000000000000002e-06 1.0000000000000002e-06 1.0000000000000002e-06 1.0000000000000002e-06 1.0000000000000002e-06 1.0000000000000002e-06 1.0000000000000002e-06 1.0000000000000002e-06 1.0000000000000002e-06 1.0000000000000002e-06 1.0000000000000002e-06 1.0000000000000002e-06 1.0000000000000002e-06 1.0000000000000002e-06 1.0000000000000002e-06 1.0000000000000002e-06 1.0000000000000002e-06 1.0000000000000002e-06 1.0000000000000002e-06 5.000000000000001e-07 5.000000000000001e-07 1.0000000000000002e-06 1.0000000000000002e-06 1.0000000000000002e-06 1.0000000000000002e-06 1.0000000000000002e-06 1.0000000000000002e-06 1.0000000000000002e-06 1.0000000000000002e-06 1.0000000000000002e-06 1.0000000000000002e-06 1.0000000000000002e-06 1.0000000000000002e-06 1.0000000000000002e-06 1.0000000000000002e-06 1.0000000000000002e-06 1.0000000000000002e-06 1.0000000000000002e-06 1.0000000000000002e-06 1.0000000000000002e-06 5.000000000000001e-07 5.000000000000001e-07 1.0000000000000002e-06 1.0000000000000002e-06 1.0000000000000002e-06 1.0000000000000002e-06 1.0000000000000002e-06 1.0000000000000002e-06 1.0000000000000002e-06 1.0000000000000002e-06 1.0000000000000002e-06 1.0000000000000002e-06 1.0000000000000002e-06 1.0000000000000002e-06 1.0000000000000002e-06 1.0000000000000002e-06 1.0000000000000002e-06 1.0000000000000002e-06 1.0000000000000002e-06 1.0000000000000002e-06 1.0000000000000002e-06 5.000000000000001e-07 5.000000000000001e-07 1.0000000000000002e-06 1.0000000000000002e-06 1.0000000000000002e-06 1.0000000000000002e-06 1.0000000000000002e-06 1.0000000000000002e-06 1.0000000000000002e-06 1.0000000000000002e-06 1.0000000000000002e-06 1.0000000000000002e-06 1.0000000000000002e-06 1.0000000000000002e-06 1.0000000000000002e-06 1.0000000000000002e-06 1.0000000000000002e-06 1.0000000000000002e-06 1.0000000000000002e-06 1.0000000000000002e-06 1.0000000000000002e-06 5.000000000000001e-07 5.000000000000001e-07 1.0000000000000002e-06 1.0000000000000002e-06 1.0000000000000002e-06 1.0000000000000002e-06 1.0000000000000002e-06 1.0000000000000002e-06 1.0000000000000002e-06 1.0000000000000002e-06 1.0000000000000002e-06 1.0000000000000002e-06 1.0000000000000002e-06 1.0000000000000002e-06 1.0000000000000002e-06 1.0000000000000002e-06 1.0000000000000002e-06 1.0000000000000002e-06 1.0000000000000002e-06 1.0000000000000002e-06 1.0000000000000002e-06 5.000000000000001e-07 5.000000000000001e-07 1.0000000000000002e-06 1.0000000000000002e-06 1.0000000000000002e-06 1.0000000000000002e-06 1.0000000000000002e-06 1.0000000000000002e-06 1.0000000000000002e-06 1.0000000000000002e-06 1.0000000000000002e-06 1.0000000000000002e-06 1.0000000000000002e-06 1.0000000000000002e-06 1.0000000000000002e-06 1.0000000000000002e-06 1.0000000000000002e-06 1.0000000000000002e-06 1.0000000000000002e-06 1.0000000000000002e-06 1.0000000000000002e-06 5.000000000000001e-07 5.000000000000001e-07 1.0000000000000002e-06 1.0000000000000002e-06 1.0000000000000002e-06 1.0000000000000002e-06 1.0000000000000002e-06 1.0000000000000002e-06 1.0000000000000002e-06 1.0000000000000002e-06 1.0000000000000002e-06 1.0000000000000002e-06 1.0000000000000002e-06 1.0000000000000002e-06 1.0000000000000002e-06 1.0000000000000002e-06 1.0000000000000002e-06 1.0000000000000002e-06 1.0000000000000002e-06 1.0000000000000002e-06 1.0000000000000002e-06 5.000000000000001e-07 5.000000000000001e-07 1.0000000000000002e-06 1.0000000000000002e-06 1.0000000000000002e-06 1.0000000000000002e-06 1.0000000000000002e-06 1.0000000000000002e-06 1.0000000000000002e-06 1.0000000000000002e-06 1.0000000000000002e-06 1.0000000000000002e-06 1.0000000000000002e-06 1.0000000000000002e-06 1.0000000000000002e-06 1.0000000000000002e-06 1.0000000000000002e-06 1.0000000000000002e-06 1.0000000000000002e-06 1.0000000000000002e-06 1.0000000000000002e-06 5.000000000000001e-07 5.000000000000001e-07 1.0000000000000002e-06 1.0000000000000002e-06 1.0000000000000002e-06 1.0000000000000002e-06 1.0000000000000002e-06 1.0000000000000002e-06 1.0000000000000002e-06 1.0000000000000002e-06 1.0000000000000002e-06 1.0000000000000002e-06 1.0000000000000002e-06 1.0000000000000002e-06 1.0000000000000002e-06 1.0000000000000002e-06 1.0000000000000002e-06 1.0000000000000002e-06 1.0000000000000002e-06 1.0000000000000002e-06 1.0000000000000002e-06 5.000000000000001e-07 2.5000000000000004e-07 5.000000000000001e-07 5.000000000000001e-07 5.000000000000001e-07 5.000000000000001e-07 5.000000000000001e-07 5.000000000000001e-07 5.000000000000001e-07 5.000000000000001e-07 5.000000000000001e-07 5.000000000000001e-07 5.000000000000001e-07 5.000000000000001e-07 5.000000000000001e-07 5.000000000000001e-07 5.000000000000001e-07 5.000000000000001e-07 5.000000000000001e-07 5.000000000000001e-07 5.000000000000001e-07 2.5000000000000004e-07 2.5000000000000004e-07 5.000000000000001e-07 5.000000000000001e-07 5.000000000000001e-07 5.000000000000001e-07 5.000000000000001e-07 5.000000000000001e-07 5.000000000000001e-07 5.000000000000001e-07 5.000000000000001e-07 5.000000000000001e-07 5.000000000000001e-07 5.000000000000001e-07 5.000000000000001e-07 5.000000000000001e-07 5.000000000000001e-07 5.000000000000001e-07 5.000000000000001e-07 5.000000000000001e-07 5.000000000000001e-07 2.5000000000000004e-07 5.000000000000001e-07 1.0000000000000002e-06 1.0000000000000002e-06 1.0000000000000002e-06 1.0000000000000002e-06 1.0000000000000002e-06 1.0000000000000002e-06 1.0000000000000002e-06 1.0000000000000002e-06 1.0000000000000002e-06 1.0000000000000002e-06 1.0000000000000002e-06 1.0000000000000002e-06 1.0000000000000002e-06 1.0000000000000002e-06 1.0000000000000002e-06 1.0000000000000002e-06 1.0000000000000002e-06 1.0000000000000002e-06 1.0000000000000002e-06 5.000000000000001e-07 5.000000000000001e-07 1.0000000000000002e-06 1.0000000000000002e-06 1.0000000000000002e-06 1.0000000000000002e-06 1.0000000000000002e-06 1.0000000000000002e-06 1.0000000000000002e-06 1.0000000000000002e-06 1.0000000000000002e-06 1.0000000000000002e-06 1.0000000000000002e-06 1.0000000000000002e-06 1.0000000000000002e-06 1.0000000000000002e-06 1.0000000000000002e-06 1.0000000000000002e-06 1.0000000000000002e-06 1.0000000000000002e-06 1.0000000000000002e-06 5.000000000000001e-07 5.000000000000001e-07 1.0000000000000002e-06 1.0000000000000002e-06 1.0000000000000002e-06 1.0000000000000002e-06 1.0000000000000002e-06 1.0000000000000002e-06 1.0000000000000002e-06 1.0000000000000002e-06 1.0000000000000002e-06 1.0000000000000002e-06 1.0000000000000002e-06 1.0000000000000002e-06 1.0000000000000002e-06 1.0000000000000002e-06 1.0000000000000002e-06 1.0000000000000002e-06 1.0000000000000002e-06 1.0000000000000002e-06 1.0000000000000002e-06 5.000000000000001e-07 5.000000000000001e-07 1.0000000000000002e-06 1.0000000000000002e-06 1.0000000000000002e-06 1.0000000000000002e-06 1.0000000000000002e-06 1.0000000000000002e-06 1.0000000000000002e-06 1.0000000000000002e-06 1.0000000000000002e-06 1.0000000000000002e-06 1.0000000000000002e-06 1.0000000000000002e-06 1.0000000000000002e-06 1.0000000000000002e-06 1.0000000000000002e-06 1.0000000000000002e-06 1.0000000000000002e-06 1.0000000000000002e-06 1.0000000000000002e-06 5.000000000000001e-07 5.000000000000001e-07 1.0000000000000002e-06 1.0000000000000002e-06 1.0000000000000002e-06 1.0000000000000002e-06 1.0000000000000002e-06 1.0000000000000002e-06 1.0000000000000002e-06 1.0000000000000002e-06 1.0000000000000002e-06 1.0000000000000002e-06 1.0000000000000002e-06 1.0000000000000002e-06 1.0000000000000002e-06 1.0000000000000002e-06 1.0000000000000002e-06 1.0000000000000002e-06 1.0000000000000002e-06 1.0000000000000002e-06 1.0000000000000002e-06 5.000000000000001e-07 5.000000000000001e-07 1.0000000000000002e-06 1.0000000000000002e-06 1.0000000000000002e-06 1.0000000000000002e-06 1.0000000000000002e-06 1.0000000000000002e-06 1.0000000000000002e-06 1.0000000000000002e-06 1.0000000000000002e-06 1.0000000000000002e-06 1.0000000000000002e-06 1.0000000000000002e-06 1.0000000000000002e-06 1.0000000000000002e-06 1.0000000000000002e-06 1.0000000000000002e-06 1.0000000000000002e-06 1.0000000000000002e-06 1.0000000000000002e-06 5.000000000000001e-07 5.000000000000001e-07 1.0000000000000002e-06 1.0000000000000002e-06 1.0000000000000002e-06 1.0000000000000002e-06 1.0000000000000002e-06 1.0000000000000002e-06 1.0000000000000002e-06 1.0000000000000002e-06 1.0000000000000002e-06 1.0000000000000002e-06 1.0000000000000002e-06 1.0000000000000002e-06 1.0000000000000002e-06 1.0000000000000002e-06 1.0000000000000002e-06 1.0000000000000002e-06 1.0000000000000002e-06 1.0000000000000002e-06 1.0000000000000002e-06 5.000000000000001e-07 5.000000000000001e-07 1.0000000000000002e-06 1.0000000000000002e-06 1.0000000000000002e-06 1.0000000000000002e-06 1.0000000000000002e-06 1.0000000000000002e-06 1.0000000000000002e-06 1.0000000000000002e-06 1.0000000000000002e-06 1.0000000000000002e-06 1.0000000000000002e-06 1.0000000000000002e-06 1.0000000000000002e-06 1.0000000000000002e-06 1.0000000000000002e-06 1.0000000000000002e-06 1.0000000000000002e-06 1.0000000000000002e-06 1.0000000000000002e-06 5.000000000000001e-07 5.000000000000001e-07 1.0000000000000002e-06 1.0000000000000002e-06 1.0000000000000002e-06 1.0000000000000002e-06 1.0000000000000002e-06 1.0000000000000002e-06 1.0000000000000002e-06 1.0000000000000002e-06 1.0000000000000002e-06 1.0000000000000002e-06 1.0000000000000002e-06 1.0000000000000002e-06 1.0000000000000002e-06 1.0000000000000002e-06 1.0000000000000002e-06 1.0000000000000002e-06 1.0000000000000002e-06 1.0000000000000002e-06 1.0000000000000002e-06 5.000000000000001e-07 5.000000000000001e-07 1.0000000000000002e-06 1.0000000000000002e-06 1.0000000000000002e-06 1.0000000000000002e-06 1.0000000000000002e-06 1.0000000000000002e-06 1.0000000000000002e-06 1.0000000000000002e-06 1.0000000000000002e-06 1.0000000000000002e-06 1.0000000000000002e-06 1.0000000000000002e-06 1.0000000000000002e-06 1.0000000000000002e-06 1.0000000000000002e-06 1.0000000000000002e-06 1.0000000000000002e-06 1.0000000000000002e-06 1.0000000000000002e-06 5.000000000000001e-07 5.000000000000001e-07 1.0000000000000002e-06 1.0000000000000002e-06 1.0000000000000002e-06 1.0000000000000002e-06 1.0000000000000002e-06 1.0000000000000002e-06 1.0000000000000002e-06 1.0000000000000002e-06 1.0000000000000002e-06 1.0000000000000002e-06 1.0000000000000002e-06 1.0000000000000002e-06 1.0000000000000002e-06 1.0000000000000002e-06 1.0000000000000002e-06 1.0000000000000002e-06 1.0000000000000002e-06 1.0000000000000002e-06 1.0000000000000002e-06 5.000000000000001e-07 5.000000000000001e-07 1.0000000000000002e-06 1.0000000000000002e-06 1.0000000000000002e-06 1.0000000000000002e-06 1.0000000000000002e-06 1.0000000000000002e-06 1.0000000000000002e-06 1.0000000000000002e-06 1.0000000000000002e-06 1.0000000000000002e-06 1.0000000000000002e-06 1.0000000000000002e-06 1.0000000000000002e-06 1.0000000000000002e-06 1.0000000000000002e-06 1.0000000000000002e-06 1.0000000000000002e-06 1.0000000000000002e-06 1.0000000000000002e-06 5.000000000000001e-07 5.000000000000001e-07 1.0000000000000002e-06 1.0000000000000002e-06 1.0000000000000002e-06 1.0000000000000002e-06 1.0000000000000002e-06 1.0000000000000002e-06 1.0000000000000002e-06 1.0000000000000002e-06 1.0000000000000002e-06 1.0000000000000002e-06 1.0000000000000002e-06 1.0000000000000002e-06 1.0000000000000002e-06 1.0000000000000002e-06 1.0000000000000002e-06 1.0000000000000002e-06 1.0000000000000002e-06 1.0000000000000002e-06 1.0000000000000002e-06 5.000000000000001e-07 5.000000000000001e-07 1.0000000000000002e-06 1.0000000000000002e-06 1.0000000000000002e-06 1.0000000000000002e-06 1.0000000000000002e-06 1.0000000000000002e-06 1.0000000000000002e-06 1.0000000000000002e-06 1.0000000000000002e-06 1.0000000000000002e-06 1.0000000000000002e-06 1.0000000000000002e-06 1.0000000000000002e-06 1.0000000000000002e-06 1.0000000000000002e-06 1.0000000000000002e-06 1.0000000000000002e-06 1.0000000000000002e-06 1.0000000000000002e-06 5.000000000000001e-07 5.000000000000001e-07 1.0000000000000002e-06 1.0000000000000002e-06 1.0000000000000002e-06 1.0000000000000002e-06 1.0000000000000002e-06 1.0000000000000002e-06 1.0000000000000002e-06 1.0000000000000002e-06 1.0000000000000002e-06 1.0000000000000002e-06 1.0000000000000002e-06 1.0000000000000002e-06 1.0000000000000002e-06 1.0000000000000002e-06 1.0000000000000002e-06 1.0000000000000002e-06 1.0000000000000002e-06 1.0000000000000002e-06 1.0000000000000002e-06 5.000000000000001e-07 5.000000000000001e-07 1.0000000000000002e-06 1.0000000000000002e-06 1.0000000000000002e-06 1.0000000000000002e-06 1.0000000000000002e-06 1.0000000000000002e-06 1.0000000000000002e-06 1.0000000000000002e-06 1.0000000000000002e-06 1.0000000000000002e-06 1.0000000000000002e-06 1.0000000000000002e-06 1.0000000000000002e-06 1.0000000000000002e-06 1.0000000000000002e-06 1.0000000000000002e-06 1.0000000000000002e-06 1.0000000000000002e-06 1.0000000000000002e-06 5.000000000000001e-07 5.000000000000001e-07 1.0000000000000002e-06 1.0000000000000002e-06 1.0000000000000002e-06 1.0000000000000002e-06 1.0000000000000002e-06 1.0000000000000002e-06 1.0000000000000002e-06 1.0000000000000002e-06 1.0000000000000002e-06 1.0000000000000002e-06 1.0000000000000002e-06 1.0000000000000002e-06 1.0000000000000002e-06 1.0000000000000002e-06 1.0000000000000002e-06 1.0000000000000002e-06 1.0000000000000002e-06 1.0000000000000002e-06 1.0000000000000002e-06 5.000000000000001e-07 5.000000000000001e-07 1.0000000000000002e-06 1.0000000000000002e-06 1.0000000000000002e-06 1.0000000000000002e-06 1.0000000000000002e-06 1.0000000000000002e-06 1.0000000000000002e-06 1.0000000000000002e-06 1.0000000000000002e-06 1.0000000000000002e-06 1.0000000000000002e-06 1.0000000000000002e-06 1.0000000000000002e-06 1.0000000000000002e-06 1.0000000000000002e-06 1.0000000000000002e-06 1.0000000000000002e-06 1.0000000000000002e-06 1.0000000000000002e-06 5.000000000000001e-07 5.000000000000001e-07 1.0000000000000002e-06 1.0000000000000002e-06 1.0000000000000002e-06 1.0000000000000002e-06 1.0000000000000002e-06 1.0000000000000002e-06 1.0000000000000002e-06 1.0000000000000002e-06 1.0000000000000002e-06 1.0000000000000002e-06 1.0000000000000002e-06 1.0000000000000002e-06 1.0000000000000002e-06 1.0000000000000002e-06 1.0000000000000002e-06 1.0000000000000002e-06 1.0000000000000002e-06 1.0000000000000002e-06 1.0000000000000002e-06 5.000000000000001e-07 2.5000000000000004e-07 5.000000000000001e-07 5.000000000000001e-07 5.000000000000001e-07 5.000000000000001e-07 5.000000000000001e-07 5.000000000000001e-07 5.000000000000001e-07 5.000000000000001e-07 5.000000000000001e-07 5.000000000000001e-07 5.000000000000001e-07 5.000000000000001e-07 5.000000000000001e-07 5.000000000000001e-07 5.0000000