<?xml version="1.0"?>
<VTKFile type="ImageData" version="0.1" byte_order="LittleEndian">
<ImageData Origin="-0.00132 0.0" Spacing="0.000132 0.000132" WholeExtent="0 20 0 60 0 0">
<PointData>
<DataArray Name="object_id" NumberOfComponents="1" format="ascii" type="Int32">
2 2 2 2 2 2 2 2 2 2 2 2 2 2 2 2 2 2 2 2 2 0 0 0 0 0 0 0 0 0 0 0 0 0 0 0 0 0 0 0 0 0 0 0 0 0 0 0 0 0 0 0 0 0 0 0 0 0 0 0 0 0 0 0 0 0 0 0 0 0 0 0 0 0 0 0 0 0 0 0 0 0 0 0 0 0 0 0 0 0 0 0 0 0 0 0 0 0 0 0 0 0 0 0 0 0 0 0 0 0 0 0 0 0 0 0 0 0 0 0 0 0 0 0 0 0 0 0 0 0 0 0 0 0 0 0 0 0 0 0 0 0 0 0 0 0 0 0 0 0 0 0 0 0 0 0 0 0 0 0 0 0 0 0 0 0 0 0 0 0 0 0 0 0 0 0 0 0 0 0 0 0 0 0 0 0 0 0 0 0 0 0 0 0 0 0 0 0 0 0 0 0 0 0 0 0 0 0 0 0 1 1 1 0 0 0 0 0 0 0 0 0 0 0 0 0 0 0 1 1 1 1 1 1 0 0 0 0 0 0 0 0 0 0 0 0 0 0 0 1 1 1 1 1 1 0 0 0 0 0 0 0 0 0 0 0 0 0 0 0 1 1 1 1 1 1 0 0 0 0 0 0 0 0 0 0 0 0 0 0 0 1 1 1 0 0 0 0 0 0 0 0 0 0 0 0 0 0 0 0 0 0 0 0 0 0 0 0 0 0 0 0 0 0 0 0 0 0 0 0 0 0 0 0 0 0 0 0 0 0 0 0 0 0 0 0 0 0 0 0 0 0 0 0 0 0 0 0 0 0 0 0 0 0 0 0 0 0 0 0 0 0 0 0 0 0 0 0 1 1 1 1 1 1 0 0 0 0 0 0 0 0 0 1 1 1 1 1 1 1 1 1 1 1 1 0 0 0 0 0 0 0 0 0 1 1 1 1 1 1 1 1 1 1 1 1 0 0 0 0 0 0 0 0 0 1 1 1 1 1 1 1 1 1 1 1 1 0 0 0 0 0 0 0 0 0 1 1 1 1 1 1 1 1 1 1 1 1 0 0 0 0 0 0 0 0 0 1 1 1 1 1 1 1 1 1 1 1 1 0 0 0 0 0 0 0 0 0 1 1 1 1 1 1 1 1 1 1 1 1 0 0 0 0 0 0 0 0 0 1 1 1 1 1 1 0 0 0 0 0 0 0 0 0 0 0 0 0 0 0 0 0 0 0 0 0 0 0 0 0 0 0 0 0 0 0 0 0 0 0 0 0 0 0 0 0 0 0 0 0 0 0 0 0 0 0 0 0 0 0 0 0 0 0 0 0 0 0 0 0 0 0 0 0 0 0 0 0 0 0 0 0 0 0 0 0 0 0 0 0 0 0 0 0 0 0 0 0 0 0 0 0 0 0 0 0 0 0 0 0 0 0 0 0 0 0 0 0 0 0 0 0 0 0 0 0 0 0 0 0 0 1 1 1 0 0 0 0 0 0 0 0 0 0 0 0 0 0 0 1 1 1 1 1 1 0 0 0 0 0 0 0 0 0 0 0 0 0 0 0 1 1 1 1 1 1 0 0 0 0 0 0 0 0 0 0 0 0 0 0 0 1 1 1 1 1 1 0 0 0 0 0 0 0 0 0 0 0 0 0 0 0 1 1 1 1 1 1 0 0 0 0 0 0 0 0 0 0 0 0 0 0 0 1 1 1 1 1 1 0 0 0 0 0 0 0 0 0 0 0 0 0 0 0 1 1 1 1 1 1 0 0 0 0 0 0 0 0 0 0 0 0 0 0 0 1 1 1 0 0 0 0 0 0 0 0 0 0 0 0 0 0 0 0 0 0 0 0 0 0 0 0 0 0 0 0 0 0 0 0 0 0 0 0 0 0 0 0 0 0 0 0 0 0 0 0 0 0 0 0 0 0 0 0 0 0 0 0 0 0 0 0 0 0 0 0 0 0 0 0 0 0 0 0 0 0 0 0 0 0 0 0 0 0 0 0 0 0 0 0 0 0 0 0 0 0 0 0 0 0 0 0 0 0 0 0 0 0 0 0 0 0 0 0 0 0 0 0 0 0 0 0 0 0 0 0 0 0 0 0 0 0 0 0 0 0 0 0 0 0 0 0 0 0 0 0 0 0 0 0 0 0 0 0 0 0 0 0 0 0 0 0 0 0 0 0 0 0 0 0 0 0 0 0 0 0 0 0 0 0 0 0 0 0 0 0 0 0 0 0 0 0 0 0 0 0 0 0 0 0 0 0 0 0 0 0 0 0 0 0 0 0 0 0 0 0 0 0 0 0 0 0 0 0 0 0 0 0 0 0 0 0 0 0 0 0 0 0 0 0 0 0 0 0 0 0 0 0 0 0 0 0 0 0 0 0 0 0 0 0 0 0 0 0 0 0 0 0 0 0 0 0 0 0 0 0 0 0 0 0 0 0 0 0 0 0 0 0 0 0 0 0 0 0 0 0 0 0 0 0 0 0 0 0 0 0 0 0 0 0 0 0 0 0 0 0 0 0 0 0 0 0 0 0 0 0 0 0 0 0 0 0 0 0 0 0 0 0 0 0 0 0 0 0 0 0 0 0 0 0 0 0 0 0 0 0 0 0 0 0 0 0 0 0 0 0 0 0 0 0 0 0 0 0 0 0 0 0 0 0 0 0 0 0 0 0 0 0 0 0 0 0 0 0 0 0 0 0 0 0 0 0 0 0 0 0 0 0 0 0 0 0 0 0 0 0 0 0 0 0 0 0 0 0 0 0 0 0 0 0 0 0 0 0 0 0 0 0 0 0 0 0 0 0 0 0 0 0 0 0 0 0 0 0 0 0 0 0 0 0 0 0 0 0 0 0 0 0 0 0 0 0 0 0 0 0 0 0 0 0 0 
</DataArray>
<DataArray Name="NodeVol" NumberOfComponents="1" format="ascii" type="Float64">
4.356e-09 8.712e-09 8.712e-09 8.712e-09 8.712e-09 8.712e-09 8.712e-09 8.712e-09 8.712e-09 8.712e-09 8.712e-09 8.712e-09 8.712e-09 8.712e-09 8.712e-09 8.712e-09 8.712e-09 8.712e-09 8.712e-09 8.712e-09 4.356e-09 8.712e-09 1.7424e-08 1.7424e-08 1.7424e-08 1.7424e-08 1.7424e-08 1.7424e-08 1.7424e-08 1.7424e-08 1.7424e-08 1.7424e-08 1.7424e-08 1.7424e-08 1.7424e-08 1.7424e-08 1.7424e-08 1.7424e-08 1.7424e-08 1.7424e-08 1.7424e-08 8.712e-09 8.712e-09 1.7424e-08 1.7424e-08 1.7424e-08 1.7424e-08 1.7424e-08 1.7424e-08 1.7424e-08 1.7424e-08 1.7424e-08 1.7424e-08 1.7424e-08 1.7424e-08 1.7424e-08 1.7424e-08 1.7424e-08 1.7424e-08 1.7424e-08 1.7424e-08 1.7424e-08 8.712e-09 8.712e-09 1.7424e-08 1.7424e-08 1.7424e-08 1.7424e-08 1.7424e-08 1.7424e-08 1.7424e-08 1.7424e-08 1.7424e-08 1.7424e-08 1.7424e-08 1.7424e-08 1.7424e-08 1.7424e-08 1.7424e-08 1.7424e-08 1.7424e-08 1.7424e-08 1.7424e-08 8.712e-09 8.712e-09 1.7424e-08 1.7424e-08 1.7424e-08 1.7424e-08 1.7424e-08 1.7424e-08 1.7424e-08 1.7424e-08 1.7424e-08 1.7424e-08 1.7424e-08 1.7424e-08 1.7424e-08 1.7424e-08 1.7424e-08 1.7424e-08 1.7424e-08 1.7424e-08 1.7424e-08 8.712e-09 8.712e-09 1.7424e-08 1.7424e-08 1.7424e-08 1.7424e-08 1.7424e-08 1.7424e-08 1.7424e-08 1.7424e-08 1.7424e-08 1.7424e-08 1.7424e-08 1.7424e-08 1.7424e-08 1.7424e-08 1.7424e-08 1.7424e-08 1.7424e-08 1.7424e-08 1.7424e-08 8.712e-09 8.712e-09 1.7424e-08 1.7424e-08 1.7424e-08 1.7424e-08 1.7424e-08 1.7424e-08 1.7424e-08 1.7424e-08 1.7424e-08 1.7424e-08 1.7424e-08 1.7424e-08 1.7424e-08 1.7424e-08 1.7424e-08 1.7424e-08 1.7424e-08 1.7424e-08 1.7424e-08 8.712e-09 8.712e-09 1.7424e-08 1.7424e-08 1.7424e-08 1.7424e-08 1.7424e-08 1.7424e-08 1.7424e-08 1.7424e-08 1.7424e-08 1.7424e-08 1.7424e-08 1.7424e-08 1.7424e-08 1.7424e-08 1.7424e-08 1.7424e-08 1.7424e-08 1.7424e-08 1.7424e-08 8.712e-09 8.712e-09 1.7424e-08 1.7424e-08 1.7424e-08 1.7424e-08 1.7424e-08 1.7424e-08 1.7424e-08 1.7424e-08 1.7424e-08 1.7424e-08 1.7424e-08 1.7424e-08 1.7424e-08 1.7424e-08 1.7424e-08 1.7424e-08 1.7424e-08 1.7424e-08 1.7424e-08 8.712e-09 8.712e-09 1.7424e-08 1.7424e-08 1.7424e-08 1.7424e-08 1.7424e-08 1.7424e-08 1.7424e-08 1.7424e-08 1.7424e-08 1.7424e-08 1.7424e-08 1.7424e-08 1.7424e-08 1.7424e-08 1.7424e-08 1.7424e-08 1.7424e-08 1.7424e-08 1.7424e-08 8.712e-09 8.712e-09 1.7424e-08 1.7424e-08 1.7424e-08 1.7424e-08 1.7424e-08 1.7424e-08 1.7424e-08 1.7424e-08 1.7424e-08 1.7424e-08 1.7424e-08 1.7424e-08 1.7424e-08 1.7424e-08 1.7424e-08 1.7424e-08 1.7424e-08 1.7424e-08 1.7424e-08 8.712e-09 8.712e-09 1.7424e-08 1.7424e-08 1.7424e-08 1.7424e-08 1.7424e-08 1.7424e-08 1.7424e-08 1.7424e-08 1.7424e-08 1.7424e-08 1.7424e-08 1.7424e-08 1.7424e-08 1.7424e-08 1.7424e-08 1.7424e-08 1.7424e-08 1.7424e-08 1.7424e-08 8.712e-09 8.712e-09 1.7424e-08 1.7424e-08 1.7424e-08 1.7424e-08 1.7424e-08 1.7424e-08 1.7424e-08 1.7424e-08 1.7424e-08 1.7424e-08 1.7424e-08 1.7424e-08 1.7424e-08 1.7424e-08 1.7424e-08 1.7424e-08 1.7424e-08 1.7424e-08 1.7424e-08 8.712e-09 8.712e-09 1.7424e-08 1.7424e-08 1.7424e-08 1.7424e-08 1.7424e-08 1.7424e-08 1.7424e-08 1.7424e-08 1.7424e-08 1.7424e-08 1.7424e-08 1.7424e-08 1.7424e-08 1.7424e-08 1.7424e-08 1.7424e-08 1.7424e-08 1.7424e-08 1.7424e-08 8.712e-09 8.712e-09 1.7424e-08 1.7424e-08 1.7424e-08 1.7424e-08 1.7424e-08 1.7424e-08 1.7424e-08 1.7424e-08 1.7424e-08 1.7424e-08 1.7424e-08 1.7424e-08 1.7424e-08 1.7424e-08 1.7424e-08 1.7424e-08 1.7424e-08 1.7424e-08 1.7424e-08 8.712e-09 8.712e-09 1.7424e-08 1.7424e-08 1.7424e-08 1.7424e-08 1.7424e-08 1.7424e-08 1.7424e-08 1.7424e-08 1.7424e-08 1.7424e-08 1.7424e-08 1.7424e-08 1.7424e-08 1.7424e-08 1.7424e-08 1.7424e-08 1.7424e-08 1.7424e-08 1.7424e-08 8.712e-09 8.712e-09 1.7424e-08 1.7424e-08 1.7424e-08 1.7424e-08 1.7424e-08 1.7424e-08 1.7424e-08 1.7424e-08 1.7424e-08 1.7424e-08 1.7424e-08 1.7424e-08 1.7424e-08 1.7424e-08 1.7424e-08 1.7424e-08 1.7424e-08 1.7424e-08 1.7424e-08 8.712e-09 8.712e-09 1.7424e-08 1.7424e-08 1.7424e-08 1.7424e-08 1.7424e-08 1.7424e-08 1.7424e-08 1.7424e-08 1.7424e-08 1.7424e-08 1.7424e-08 1.7424e-08 1.7424e-08 1.7424e-08 1.7424e-08 1.7424e-08 1.7424e-08 1.7424e-08 1.7424e-08 8.712e-09 8.712e-09 1.7424e-08 1.7424e-08 1.7424e-08 1.7424e-08 1.7424e-08 1.7424e-08 1.7424e-08 1.7424e-08 1.7424e-08 1.7424e-08 1.7424e-08 1.7424e-08 1.7424e-08 1.7424e-08 1.7424e-08 1.7424e-08 1.7424e-08 1.7424e-08 1.7424e-08 8.712e-09 8.712e-09 1.7424e-08 1.7424e-08 1.7424e-08 1.7424e-08 1.7424e-08 1.7424e-08 1.7424e-08 1.7424e-08 1.7424e-08 1.7424e-08 1.7424e-08 1.7424e-08 1.7424e-08 1.7424e-08 1.7424e-08 1.7424e-08 1.7424e-08 1.7424e-08 1.7424e-08 8.712e-09 8.712e-09 1.7424e-08 1.7424e-08 1.7424e-08 1.7424e-08 1.7424e-08 1.7424e-08 1.7424e-08 1.7424e-08 1.7424e-08 1.7424e-08 1.7424e-08 1.7424e-08 1.7424e-08 1.7424e-08 1.7424e-08 1.7424e-08 1.7424e-08 1.7424e-08 1.7424e-08 8.712e-09 8.712e-09 1.7424e-08 1.7424e-08 1.7424e-08 1.7424e-08 1.7424e-08 1.7424e-08 1.7424e-08 1.7424e-08 1.7424e-08 1.7424e-08 1.7424e-08 1.7424e-08 1.7424e-08 1.7424e-08 1.7424e-08 1.7424e-08 1.7424e-08 1.7424e-08 1.7424e-08 8.712e-09 8.712e-09 1.7424e-08 1.7424e-08 1.7424e-08 1.7424e-08 1.7424e-08 1.7424e-08 1.7424e-08 1.7424e-08 1.7424e-08 1.7424e-08 1.7424e-08 1.7424e-08 1.7424e-08 1.7424e-08 1.7424e-08 1.7424e-08 1.7424e-08 1.7424e-08 1.7424e-08 8.712e-09 8.712e-09 1.7424e-08 1.7424e-08 1.7424e-08 1.7424e-08 1.7424e-08 1.7424e-08 1.7424e-08 1.7424e-08 1.7424e-08 1.7424e-08 1.7424e-08 1.7424e-08 1.7424e-08 1.7424e-08 1.7424e-08 1.7424e-08 1.7424e-08 1.7424e-08 1.7424e-08 8.712e-09 8.712e-09 1.7424e-08 1.7424e-08 1.7424e-08 1.7424e-08 1.7424e-08 1.7424e-08 1.7424e-08 1.7424e-08 1.7424e-08 1.7424e-08 1.7424e-08 1.7424e-08 1.7424e-08 1.7424e-08 1.7424e-08 1.7424e-08 1.7424e-08 1.7424e-08 1.7424e-08 8.712e-09 8.712e-09 1.7424e-08 1.7424e-08 1.7424e-08 1.7424e-08 1.7424e-08 1.7424e-08 1.7424e-08 1.7424e-08 1.7424e-08 1.7424e-08 1.7424e-08 1.7424e-08 1.7424e-08 1.7424e-08 1.7424e-08 1.7424e-08 1.7424e-08 1.7424e-08 1.7424e-08 8.712e-09 8.712e-09 1.7424e-08 1.7424e-08 1.7424e-08 1.7424e-08 1.7424e-08 1.7424e-08 1.7424e-08 1.7424e-08 1.7424e-08 1.7424e-08 1.7424e-08 1.7424e-08 1.7424e-08 1.7424e-08 1.7424e-08 1.7424e-08 1.7424e-08 1.7424e-08 1.7424e-08 8.712e-09 8.712e-09 1.7424e-08 1.7424e-08 1.7424e-08 1.7424e-08 1.7424e-08 1.7424e-08 1.7424e-08 1.7424e-08 1.7424e-08 1.7424e-08 1.7424e-08 1.7424e-08 1.7424e-08 1.7424e-08 1.7424e-08 1.7424e-08 1.7424e-08 1.7424e-08 1.7424e-08 8.712e-09 8.712e-09 1.7424e-08 1.7424e-08 1.7424e-08 1.7424e-08 1.7424e-08 1.7424e-08 1.7424e-08 1.7424e-08 1.7424e-08 1.7424e-08 1.7424e-08 1.7424e-08 1.7424e-08 1.7424e-08 1.7424e-08 1.7424e-08 1.7424e-08 1.7424e-08 1.7424e-08 8.712e-09 8.712e-09 1.7424e-08 1.7424e-08 1.7424e-08 1.7424e-08 1.7424e-08 1.7424e-08 1.7424e-08 1.7424e-08 1.7424e-08 1.7424e-08 1.7424e-08 1.7424e-08 1.7424e-08 1.7424e-08 1.7424e-08 1.7424e-08 1.7424e-08 1.7424e-08 1.7424e-08 8.712e-09 8.712e-09 1.7424e-08 1.7424e-08 1.7424e-08 1.7424e-08 1.7424e-08 1.7424e-08 1.7424e-08 1.7424e-08 1.7424e-08 1.7424e-08 1.7424e-08 1.7424e-08 1.7424e-08 1.7424e-08 1.7424e-08 1.7424e-08 1.7424e-08 1.7424e-08 1.7424e-08 8.712e-09 8.712e-09 1.7424e-08 1.7424e-08 1.7424e-08 1.7424e-08 1.7424e-08 1.7424e-08 1.7424e-08 1.7424e-08 1.7424e-08 1.7424e-08 1.7424e-08 1.7424e-08 1.7424e-08 1.7424e-08 1.7424e-08 1.7424e-08 1.7424e-08 1.7424e-08 1.7424e-08 8.712e-09 8.712e-09 1.7424e-08 1.7424e-08 1.7424e-08 1.7424e-08 1.7424e-08 1.7424e-08 1.7424e-08 1.7424e-08 1.7424e-08 1.7424e-08 1.7424e-08 1.7424e-08 1.7424e-08 1.7424e-08 1.7424e-08 1.7424e-08 1.7424e-08 1.7424e-08 1.7424e-08 8.712e-09 8.712e-09 1.7424e-08 1.7424e-08 1.7424e-08 1.7424e-08 1.7424e-08 1.7424e-08 1.7424e-08 1.7424e-08 1.7424e-08 1.7424e-08 1.7424e-08 1.7424e-08 1.7424e-08 1.7424e-08 1.7424e-08 1.7424e-08 1.7424e-08 1.7424e-08 1.7424e-08 8.712e-09 8.712e-09 1.7424e-08 1.7424e-08 1.7424e-08 1.7424e-08 1.7424e-08 1.7424e-08 1.7424e-08 1.7424e-08 1.7424e-08 1.7424e-08 1.7424e-08 1.7424e-08 1.7424e-08 1.7424e-08 1.7424e-08 1.7424e-08 1.7424e-08 1.7424e-08 1.7424e-08 8.712e-09 8.712e-09 1.7424e-08 1.7424e-08 1.7424e-08 1.7424e-08 1.7424e-08 1.7424e-08 1.7424e-08 1.7424e-08 1.7424e-08 1.7424e-08 1.7424e-08 1.7424e-08 1.7424e-08 1.7424e-08 1.7424e-08 1.7424e-08 1.7424e-08 1.7424e-08 1.7424e-08 8.712e-09 8.712e-09 1.7424e-08 1.7424e-08 1.7424e-08 1.7424e-08 1.7424e-08 1.7424e-08 1.7424e-08 1.7424e-08 1.7424e-08 1.7424e-08 1.7424e-08 1.7424e-08 1.7424e-08 1.7424e-08 1.7424e-08 1.7424e-08 1.7424e-08 1.7424e-08 1.7424e-08 8.712e-09 8.712e-09 1.7424e-08 1.7424e-08 1.7424e-08 1.7424e-08 1.7424e-08 1.7424e-08 1.7424e-08 1.7424e-08 1.7424e-08 1.7424e-08 1.7424e-08 1.7424e-08 1.7424e-08 1.7424e-08 1.7424e-08 1.7424e-08 1.7424e-08 1.7424e-08 1.7424e-08 8.712e-09 8.712e-09 1.7424e-08 1.7424e-08 1.7424e-08 1.7424e-08 1.7424e-08 1.7424e-08 1.7424e-08 1.7424e-08 1.7424e-08 1.7424e-08 1.7424e-08 1.7424e-08 1.7424e-08 1.7424e-08 1.7424e-08 1.7424e-08 1.7424e-08 1.7424e-08 1.7424e-08 8.712e-09 8.712e-09 1.7424e-08 1.7424e-08 1.7424e-08 1.7424e-08 1.7424e-08 1.7424e-08 1.7424e-08 1.7424e-08 1.7424e-08 1.7424e-08 1.7424e-08 1.7424e-08 1.7424e-08 1.7424e-08 1.7424e-08 1.7424e-08 1.7424e-08 1.7424e-08 1.7424e-08 8.712e-09 8.712e-09 1.7424e-08 1.7424e-08 1.7424e-08 1.7424e-08 1.7424e-08 1.7424e-08 1.7424e-08 1.7424e-08 1.7424e-08 1.7424e-08 1.7424e-08 1.7424e-08 1.7424e-08 1.7424e-08 1.7424e-08 1.7424e-08 1.7424e-08 1.7424e-08 1.7424e-08 8.712e-09 8.712e-09 1.7424e-08 1.7424e-08 1.7424e-08 1.7424e-08 1.7424e-08 1.7424e-08 1.7424e-08 1.7424e-08 1.7424e-08 1.7424e-08 1.7424e-08 1.7424e-08 1.7424e-08 1.7424e-08 1.7424e-08 1.7424e-08 1.7424e-08 1.7424e-08 1.7424e-08 8.712e-09 8.712e-09 1.7424e-08 1.7424e-08 1.7424e-08 1.7424e-08 1.7424e-08 1.7424e-08 1.7424e-08 1.7424e-08 1.7424e-08 1.7424e-08 1.7424e-08 1.7424e-08 1.7424e-08 1.7424e-08 1.7424e-08 1.7424e-08 1.7424e-08 1.7424e-08 1.7424e-08 8.712e-09 8.712e-09 1.7424e-08 1.7424e-08 1.7424e-08 1.7424e-08 1.7424e-08 1.7424e-08 1.7424e-08 1.7424e-08 1.7424e-08 1.7424e-08 1.7424e-08 1.7424e-08 1.7424e-08 1.7424e-08 1.7424e-08 1.7424e-08 1.7424e-08 1.7424e-08 1.7424e-08 8.712e-09 8.712e-09 1.7424e-08 1.7424e-08 1.7424e-08 1.7424e-08 1.7424e-08 1.7424e-08 1.7424e-08 1.7424e-08 1.7424e-08 1.7424e-08 1.7424e-08 1.7424e-08 1.7424e-08 1.7424e-08 1.7424e-08 1.7424e-08 1.7424e-08 1.7424e-08 1.7424e-08 8.712e-09 8.712e-09 1.7424e-08 1.7424e-08 1.7424e-08 1.7424e-08 1.7424e-08 1.7424e-08 1.7424e-08 1.7424e-08 1.7424e-08 1.7424e-08 1.7424e-08 1.7424e-08 1.7424e-08 1.7424e-08 1.7424e-08 1.7424e-08 1.7424e-08 1.7424e-08 1.7424e-08 8.712e-09 8.712e-09 1.7424e-08 1.7424e-08 1.7424e-08 1.7424e-08 1.7424e-08 1.7424e-08 1.7424e-08 1.7424e-08 1.7424e-08 1.7424e-08 1.7424e-08 1.7424e-08 1.7424e-08 1.7424e-08 1.7424e-08 1.7424e-08 1.7424e-08 1.7424e-08 1.7424e-08 8.712e-09 8.712e-09 1.7424e-08 1.7424e-08 1.7424e-08 1.7424e-08 1.7424e-08 1.7424e-08 1.7424e-08 1.7424e-08 1.7424e-08 1.7424e-08 1.7424e-08 1.7424e-08 1.7424e-08 1.7424e-08 1.7424e-08 1.7424e-08 1.7424e-08 1.7424e-08 1.7424e-08 8.712e-09 8.712e-09 1.7424e-08 1.7424e-08 1.7424e-08 1.7424e-08 1.7424e-08 1.7424e-08 1.7424e-08 1.7424e-08 1.7424e-08 1.7424e-08 1.7424e-08 1.7424e-08 1.7424e-08 1.7424e-08 1.7424e-08 1.7424e-08 1.7424e-08 1.7424e-08 1.7424e-08 8.712e-09 8.712e-09 1.7424e-08 1.7424e-08 1.7424e-08 1.7424e-08 1.7424e-08 1.7424e-08 1.7424e-08 1.7424e-08 1.7424e-08 1.7424e-08 1.7424e-08 1.7424e-08 1.7424e-08 1.7424e-08 1.7424e-08 1.7424e-08 1.7424e-08 1.7424e-08 1.7424e-08 8.712e-09 8.712e-09 1.7424e-08 1.7424e-08 1.7424e-08 1.7424e-08 1.7424e-08 1.7424e-08 1.7424e-08 1.7424e-08 1.7424e-08 1.7424e-08 1.7424e-08 1.7424e-08 1.7424e-08 1.7424e-08 1.7424e-08 1.7424e-08 1.7424e-08 1.7424e-08 1.7424e-08 8.712e-09 8.712e-09 1.7424e-08 1.7424e-08 1.7424e-08 1.7424e-08 1.7424e-08 1.7424e-08 1.7424e-08 1.7424e-08 1.7424e-08 1.7424e-08 1.7424e-08 1.7424e-08 1.7424e-08 1.7424e-08 1.7424e-08 1.7424e-08 1.7424e-08 1.7424e-08 1.7424e-08 8.712e-09 8.712e-09 1.7424e-08 1.7424e-08 1.7424e-08 1.7424e-08 1.7424e-08 1.7424e-08 1.7424e-08 1.7424e-08 1.7424e-08 1.7424e-08 1.7424e-08 1.7424e-08 1.7424e-08 1.7424e-08 1.7424e-08 1.7424e-08 1.7424e-08 1.7424e-08 1.7424e-08 8.712e-09 8.712e-09 1.7424e-08 1.7424e-08 1.7424e-08 1.7424e-08 1.7424e-08 1.7424e-08 1.7424e-08 1.7424e-08 1.7424e-08 1.7424e-08 1.7424e-08 1.7424e-08 1.7424e-08 1.7424e-08 1.7424e-08 1.7424e-08 1.7424e-08 1.7424e-08 1.7424e-08 8.712e-09 8.712e-09 1.7424e-08 1.7424e-08 1.7424e-08 1.7424e-08 1.7424e-08 1.7424e-08 1.7424e-08 1.7424e-08 1.7424e-08 1.7424e-08 1.7424e-08 1.7424e-08 1.7424e-08 1.7424e-08 1.7424e-08 1.7424e-08 1.7424e-08 1.7424e-08 1.7424e-08 8.712e-09 8.712e-09 1.7424e-08 1.7424e-08 1.7424e-08 1.7424e-08 1.7424e-08 1.7424e-08 1.7424e-08 1.7424e-08 1.7424e-08 1.7424e-08 1.7424e-08 1.7424e-08 1.7424e-08 1.7424e-08 1.7424e-08 1.7424e-08 1.7424e-08 1.7424e-08 1.7424e-08 8.712e-09 8.712e-09 1.7424e-08 1.7424e-08 1.7424e-08 1.7424e-08 1.7424e-08 1.7424e-08 1.7424e-08 1.7424e-08 1.7424e-08 1.7424e-08 1.7424e-08 1.7424e-08 1.7424e-08 1.7424e-08 1.7424e-08 1.7424e-08 1.7424e-08 1.7424e-08 1.7424e-08 8.712e-09 8.712e-09 1.7424e-08 1.7424e-08 1.7424e-08 1.7424e-08 1.7424e-08 1.7424e-08 1.7424e-08 1.7424e-08 1.7424e-08 1.7424e-08 1.7424e-08 1.7424e-08 1.7424e-08 1.7424e-08 1.7424e-08 1.7424e-08 1.7424e-08 1.7424e-08 1.7424e-08 8.712e-09 8.712e-09 1.7424e-08 1.7424e-08 1.7424e-08 1.7424e-08 1.7424e-08 1.7424e-08 1.7424e-08 1.7424e-08 1.7424e-08 1.7424e-08 1.7424e-08 1.7424e-08 1.7424e-08 1.7424e-08 1.7424e-08 1.7424e-08 1.7424e-08 1.7424e-08 1.7424e-08 8.712e-09 8.712e-09 1.7424e-08 1.7424e-08 1.7424e-08 1.7424e-08 1.7424e-08 1.7424e-08 1.7424e-08 1.7424e-08 1.7424e-08 1.7424e-08 1.7424e-08 1.7424e-08 1.7424e-08 1.7424e-08 1.7424e-08 1.7424e-08 1.7424e-08 1.7424e-08 1.7424e-08 8.712e-09 4.356e-09 8.712e-09 8.712e-09 8.712e-09 8.712e-09 8.712e-09 8.712e-09 8.712e-09 8.712e-09 8.712e-09 8.712e-09 8.712e-09 8.712e-09 8.712e-09 8.712e-09 8.712e-09 8.712e-09 8.712e-09 8.712e-09 8.712e-09 4.356e-09 
</DataArray>
<DataArray Name="phi" NumberOfComponents="1" format="ascii" type="Float64">