<?xml version="1.0"?>
<VTKFile type="ImageData" version="0.1" byte_order="LittleEndian">
<ImageData Origin="-0.00132 0.0" Spacing="6.76923076923077e-05 6.551724137931034e-05" WholeExtent="0 39 0 87 0 0">
<PointData>
<DataArray Name="object_id" NumberOfComponents="1" format="ascii" type="Int32">
0 0 0 0 0 0 0 0 0 0 0 0 0 0 0 0 0 0 0 0 0 0 0 0 0 0 0 0 0 0 0 0 0 0 0 0 0 0 0 0 0 0 0 0 0 0 0 0 0 0 0 0 0 0 0 0 0 0 0 0 0 0 0 0 0 0 0 0 0 0 0 0 0 0 0 0 0 0 0 0 0 0 0 0 0 0 0 0 0 0 0 0 0 0 0 0 0 0 0 0 0 0 0 0 0 0 0 0 0 0 0 0 0 0 0 0 0 0 0 0 0 0 0 0 0 0 0 0 0 0 0 0 0 0 0 0 0 0 0 0 0 0 0 0 0 0 0 0 0 0 0 0 0 0 0 0 0 0 0 0 0 0 0 0 0 0 0 0 0 0 0 0 0 0 0 0 0 0 0 0 0 0 0 0 0 0 0 0 0 0 0 0 0 0 0 0 0 0 0 0 0 0 0 0 0 0 0 0 0 0 0 0 0 0 0 0 0 0 0 0 0 0 0 0 0 0 0 0 0 0 0 0 0 0 0 0 0 0 0 0 0 0 0 0 0 0 0 0 0 0 0 0 0 0 0 0 0 0 0 0 0 0 0 0 0 0 0 0 0 0 0 0 0 0 0 0 0 0 0 0 0 0 0 0 0 0 0 0 0 0 0 0 0 0 0 0 0 0 0 0 0 0 0 0 0 0 0 0 0 0 0 0 0 0 0 0 0 0 0 0 0 0 0 0 0 0 0 0 0 0 0 0 0 0 0 0 0 0 0 0 0 0 0 0 0 0 0 0 0 0 0 0 0 0 0 0 0 0 0 0 0 0 0 0 0 0 0 0 0 0 0 0 0 0 0 0 0 0 0 0 0 0 0 0 0 0 0 0 0 0 0 0 0 0 0 0 0 0 0 0 0 0 0 0 0 0 0 0 0 0 0 0 0 0 0 0 0 0 0 0 0 0 0 0 0 0 0 0 0 0 0 0 0 0 0 0 0 0 0 0 0 0 0 0 0 0 0 0 0 0 0 0 0 0 0 0 0 0 0 0 0 0 0 0 0 0 0 0 0 0 0 0 0 0 0 0 0 0 0 0 0 0 0 0 0 0 0 0 0 0 0 0 0 0 0 0 0 0 0 0 0 0 0 0 0 0 0 0 0 0 0 0 0 0 0 0 0 0 0 0 0 0 0 0 0 0 0 0 0 0 0 0 0 0 0 0 0 0 0 0 0 0 0 0 0 0 0 0 0 0 0 0 0 0 0 0 0 0 0 0 0 0 0 0 0 0 0 0 0 0 0 0 0 0 0 0 0 0 0 0 0 0 0 0 0 0 0 0 0 0 0 0 0 0 0 0 0 0 0 0 0 0 0 0 0 0 0 0 0 0 0 0 0 0 0 0 0 0 0 0 0 0 0 0 0 0 0 0 0 0 0 0 0 0 0 0 0 0 0 0 0 0 0 0 0 0 0 0 0 0 0 0 0 0 0 0 0 0 0 0 0 0 0 0 0 0 0 0 0 0 0 0 0 0 0 0 0 0 0 0 0 0 0 0 0 0 0 0 0 0 0 0 0 0 0 0 0 0 0 0 0 0 0 0 0 0 0 0 0 0 0 0 0 0 0 0 0 0 0 0 0 0 0 0 0 0 0 0 0 0 0 0 0 0 0 0 0 0 0 0 0 0 0 0 0 0 0 0 0 0 0 0 0 0 0 0 0 0 0 0 0 0 0 0 0 0 0 0 0 0 0 0 0 0 0 0 0 0 0 0 0 0 0 0 0 0 0 0 0 0 0 0 0 0 0 0 0 0 0 0 1 1 1 1 1 1 0 0 0 0 0 0 0 0 0 0 0 0 0 0 0 0 0 0 0 0 0 0 0 0 0 0 0 0 1 1 1 1 1 1 1 1 1 1 1 1 0 0 0 0 0 0 0 0 0 0 0 0 0 0 0 0 0 0 0 0 0 0 0 0 0 0 0 0 1 1 1 1 1 1 1 1 1 1 1 1 0 0 0 0 0 0 0 0 0 0 0 0 0 0 0 0 0 0 0 0 0 0 0 0 0 0 0 0 1 1 1 1 1 1 1 1 1 1 1 1 0 0 0 0 0 0 0 0 0 0 0 0 0 0 0 0 0 0 0 0 0 0 0 0 0 0 0 0 1 1 1 1 1 1 1 1 1 1 1 1 0 0 0 0 0 0 0 0 0 0 0 0 0 0 0 0 0 0 0 0 0 0 0 0 0 0 0 0 1 1 1 1 1 1 1 1 1 1 1 1 0 0 0 0 0 0 0 0 0 0 0 0 0 0 0 0 0 0 0 0 0 0 0 0 0 0 0 0 1 1 1 1 1 1 1 1 1 1 1 1 0 0 0 0 0 0 0 0 0 0 0 0 0 0 0 0 0 0 0 0 0 0 0 0 0 0 0 0 1 1 1 1 1 1 0 0 0 0 0 0 0 0 0 0 0 0 0 0 0 0 0 0 0 0 0 0 0 0 0 0 0 0 0 0 0 0 0 0 0 0 0 0 0 0 0 0 0 0 0 0 0 0 0 0 0 0 0 0 0 0 0 0 0 0 0 0 0 0 0 0 0 0 0 0 0 0 0 0 0 0 0 0 0 0 0 0 0 0 0 0 0 0 0 0 0 0 0 0 0 0 0 0 0 0 0 0 0 0 0 0 0 0 0 0 0 0 0 0 0 0 0 0 0 0 0 0 0 0 0 0 0 0 0 0 0 0 0 0 0 0 0 0 0 0 0 0 0 0 0 0 0 0 0 0 0 0 0 0 0 0 0 0 0 0 0 0 0 0 0 0 0 0 0 0 0 0 0 0 0 0 0 0 0 0 0 0 0 0 0 0 0 0 0 0 0 0 0 0 0 0 0 0 0 0 0 0 0 0 0 0 0 0 0 0 0 0 0 0 0 0 0 0 0 0 0 0 0 0 0 0 0 0 0 0 0 0 0 0 0 0 0 0 0 0 0 0 0 0 0 0 0 0 0 0 0 0 0 0 0 0 0 0 0 0 0 0 0 0 0 0 0 0 0 0 0 0 0 0 0 0 0 0 0 0 0 0 0 0 0 0 0 0 0 0 0 0 0 0 0 0 0 0 0 0 0 0 0 0 0 0 0 0 0 0 0 0 0 0 0 0 0 0 0 0 1 1 1 1 1 1 1 1 1 1 1 0 0 0 0 0 0 0 0 0 0 0 0 0 0 0 0 0 0 1 1 1 1 1 1 1 1 1 1 1 1 1 1 1 1 1 1 1 1 1 1 0 0 0 0 0 0 0 0 0 0 0 0 0 0 0 0 0 0 1 1 1 1 1 1 1 1 1 1 1 1 1 1 1 1 1 1 1 1 1 1 0 0 0 0 0 0 0 0 0 0 0 0 0 0 0 0 0 0 1 1 1 1 1 1 1 1 1 1 1 1 1 1 1 1 1 1 1 1 1 1 0 0 0 0 0 0 0 0 0 0 0 0 0 0 0 0 0 0 1 1 1 1 1 1 1 1 1 1 1 1 1 1 1 1 1 1 1 1 1 1 0 0 0 0 0 0 0 0 0 0 0 0 0 0 0 0 0 0 1 1 1 1 1 1 1 1 1 1 1 1 1 1 1 1 1 1 1 1 1 1 0 0 0 0 0 0 0 0 0 0 0 0 0 0 0 0 0 0 1 1 1 1 1 1 1 1 1 1 1 1 1 1 1 1 1 1 1 1 1 1 0 0 0 0 0 0 0 0 0 0 0 0 0 0 0 0 0 0 1 1 1 1 1 1 1 1 1 1 1 1 1 1 1 1 1 1 1 1 1 1 0 0 0 0 0 0 0 0 0 0 0 0 0 0 0 0 0 0 1 1 1 1 1 1 1 1 1 1 1 1 1 1 1 1 1 1 1 1 1 1 0 0 0 0 0 0 0 0 0 0 0 0 0 0 0 0 0 0 1 1 1 1 1 1 1 1 1 1 1 1 1 1 1 1 1 1 1 1 1 1 0 0 0 0 0 0 0 0 0 0 0 0 0 0 0 0 0 0 1 1 1 1 1 1 1 1 1 1 1 1 1 1 1 1 1 1 1 1 1 1 0 0 0 0 0 0 0 0 0 0 0 0 0 0 0 0 0 0 1 1 1 1 1 1 1 1 1 1 1 1 1 1 1 1 1 1 1 1 1 1 0 0 0 0 0 0 0 0 0 0 0 0 0 0 0 0 0 0 1 1 1 1 1 1 1 1 1 1 1 1 1 1 1 1 1 1 1 1 1 1 0 0 0 0 0 0 0 0 0 0 0 0 0 0 0 0 0 0 1 1 1 1 1 1 1 1 1 1 1 1 1 1 1 1 1 1 1 1 1 1 0 0 0 0 0 0 0 0 0 0 0 0 0 0 0 0 0 0 1 1 1 1 1 1 1 1 1 1 1 1 1 1 1 1 1 1 1 1 1 1 0 0 0 0 0 0 0 0 0 0 0 0 0 0 0 0 0 0 1 1 1 1 1 1 1 1 1 1 1 0 0 0 0 0 0 0 0 0 0 0 0 0 0 0 0 0 0 0 0 0 0 0 0 0 0 0 0 0 0 0 0 0 0 0 0 0 0 0 0 0 0 0 0 0 0 0 0 0 0 0 0 0 0 0 0 0 0 0 0 0 0 0 0 0 0 0 0 0 0 0 0 0 0 0 0 0 0 0 0 0 0 0 0 0 0 0 0 0 0 0 0 0 0 0 0 0 0 0 0 0 0 0 0 0 0 0 0 0 0 0 0 0 0 0 0 0 0 0 0 0 0 0 0 0 0 0 0 0 0 0 0 0 0 0 0 0 0 0 0 0 0 0 0 0 0 0 0 0 0 0 0 0 0 0 0 0 0 0 0 0 0 0 0 0 0 0 0 0 0 0 0 0 0 0 0 0 0 0 0 0 0 0 0 0 0 0 0 0 0 0 0 0 0 0 0 0 0 0 0 0 0 0 0 0 0 0 0 0 0 0 0 0 0 0 0 0 0 0 0 0 0 0 0 0 0 0 0 0 0 0 0 0 0 0 0 0 0 0 0 0 0 0 0 0 0 0 0 0 0 0 0 0 0 0 0 0 0 0 0 0 0 0 0 0 0 0 0 0 0 0 0 0 0 0 0 0 0 0 0 0 0 0 0 0 0 0 0 0 0 0 0 0 0 0 0 0 0 0 0 0 0 0 0 0 0 0 0 0 0 0 0 0 0 0 0 0 0 0 0 0 0 0 0 0 0 0 0 0 0 0 0 0 0 0 0 0 0 0 0 0 0 0 0 0 0 0 0 0 0 0 0 0 0 0 0 0 0 0 0 0 0 0 0 0 0 0 0 0 0 0 0 0 0 0 0 0 0 0 0 0 0 0 0 0 0 0 0 0 0 0 0 0 0 0 0 0 0 0 0 0 0 0 0 0 0 0 0 0 0 0 0 0 0 0 0 0 0 0 0 0 0 0 0 0 0 0 0 0 0 0 0 0 0 0 0 0 0 0 0 0 0 0 0 0 0 0 0 0 0 0 0 0 0 0 0 0 0 0 0 0 0 0 0 0 0 0 0 0 0 0 0 0 0 0 0 0 0 0 0 1 1 1 1 1 1 0 0 0 0 0 0 0 0 0 0 0 0 0 0 0 0 0 0 0 0 0 0 0 0 0 0 0 0 1 1 1 1 1 1 1 1 1 1 1 1 0 0 0 0 0 0 0 0 0 0 0 0 0 0 0 0 0 0 0 0 0 0 0 0 0 0 0 0 1 1 1 1 1 1 1 1 1 1 1 1 0 0 0 0 0 0 0 0 0 0 0 0 0 0 0 0 0 0 0 0 0 0 0 0 0 0 0 0 1 1 1 1 1 1 1 1 1 1 1 1 0 0 0 0 0 0 0 0 0 0 0 0 0 0 0 0 0 0 0 0 0 0 0 0 0 0 0 0 1 1 1 1 1 1 1 1 1 1 1 1 0 0 0 0 0 0 0 0 0 0 0 0 0 0 0 0 0 0 0 0 0 0 0 0 0 0 0 0 1 1 1 1 1 1 1 1 1 1 1 1 0 0 0 0 0 0 0 0 0 0 0 0 0 0 0 0 0 0 0 0 0 0 0 0 0 0 0 0 1 1 1 1 1 1 1 1 1 1 1 1 0 0 0 0 0 0 0 0 0 0 0 0 0 0 0 0 0 0 0 0 0 0 0 0 0 0 0 0 1 1 1 1 1 1 1 1 1 1 1 1 0 0 0 0 0 0 0 0 0 0 0 0 0 0 0 0 0 0 0 0 0 0 0 0 0 0 0 0 1 1 1 1 1 1 1 1 1 1 1 1 0 0 0 0 0 0 0 0 0 0 0 0 0 0 0 0 0 0 0 0 0 0 0 0 0 0 0 0 1 1 1 1 1 1 1 1 1 1 1 1 0 0 0 0 0 0 0 0 0 0 0 0 0 0 0 0 0 0 0 0 0 0 0 0 0 0 0 0 1 1 1 1 1 1 1 1 1 1 1 1 0 0 0 0 0 0 0 0 0 0 0 0 0 0 0 0 0 0 0 0 0 0 0 0 0 0 0 0 1 1 1 1 1 1 1 1 1 1 1 1 0 0 0 0 0 0 0 0 0 0 0 0 0 0 0 0 0 0 0 0 0 0 0 0 0 0 0 0 1 1 1 1 1 1 1 1 1 1 1 1 0 0 0 0 0 0 0 0 0 0 0 0 0 0 0 0 0 0 0 0 0 0 0 0 0 0 0 0 1 1 1 1 1 1 1 1 1 1 1 1 0 0 0 0 0 0 0 0 0 0 0 0 0 0 0 0 0 0 0 0 0 0 0 0 0 0 0 0 1 1 1 1 1 1 1 1 1 1 1 1 0 0 0 0 0 0 0 0 0 0 0 0 0 0 0 0 0 0 0 0 0 0 0 0 0 0 0 0 1 1 1 1 1 1 0 0 0 0 0 0 0 0 0 0 0 0 0 0 0 0 0 0 0 0 0 0 0 0 0 0 0 0 0 0 0 0 0 0 0 0 0 0 0 0 0 0 0 0 0 0 0 0 0 0 0 0 0 0 0 0 0 0 0 0 0 0 0 0 0 0 0 0 0 0 0 0 0 0 0 0 0 0 0 0 0 0 0 0 0 0 0 0 0 0 0 0 0 0 0 0 0 0 0 0 0 0 0 0 0 0 0 0 0 0 0 0 0 0 0 0 0 0 0 0 0 0 0 0 0 0 0 0 0 0 0 0 0 0 0 0 0 0 0 0 0 0 0 0 0 0 0 0 0 0 0 0 0 0 0 0 0 0 0 0 0 0 0 0 0 0 0 0 0 0 0 0 0 0 0 0 0 0 0 0 0 0 0 0 0 0 0 0 0 0 0 0 0 0 0 0 0 0 0 0 0 0 0 0 0 0 0 0 0 0 0 0 0 0 0 0 0 0 0 0 0 0 0 0 0 0 0 0 0 0 0 0 0 0 0 0 0 0 0 0 0 0 0 0 0 0 0 0 0 0 0 0 0 0 0 0 0 0 0 0 0 0 0 0 0 0 0 0 0 0 0 0 0 0 0 0 0 0 0 0 0 0 0 0 0 0 0 0 0 0 0 0 0 0 0 0 0 0 0 0 0 0 0 0 0 0 0 0 0 0 0 0 0 0 0 0 0 0 0 0 0 0 0 0 0 0 0 0 0 0 0 0 0 0 0 0 0 0 0 0 0 0 0 0 0 0 0 0 0 0 0 0 0 0 0 0 0 0 0 0 0 0 0 0 0 0 0 0 0 0 0 0 0 0 0 0 0 0 0 0 0 0 0 0 0 0 0 0 0 0 0 0 0 0 0 0 0 0 0 0 0 0 0 0 0 0 0 0 0 0 0 0 0 0 0 0 0 0 0 0 0 0 0 0 0 0 0 0 0 0 0 0 0 0 0 0 0 0 0 0 
</DataArray>
<DataArray Name="NodeVol" NumberOfComponents="1" format="ascii" type="Float64">
1.1087533156498673e-09 2.2175066312997346e-09 2.2175066312997346e-09 2.2175066312997346e-09 2.2175066312997346e-09 2.2175066312997346e-09 2.2175066312997346e-09 2.2175066312997346e-09 2.2175066312997346e-09 2.2175066312997346e-09 2.2175066312997346e-09 2.2175066312997346e-09 2.2175066312997346e-09 2.2175066312997346e-09 2.2175066312997346e-09 2.2175066312997346e-09 2.2175066312997346e-09 2.2175066312997346e-09 2.2175066312997346e-09 2.2175066312997346e-09 2.2175066312997346e-09 2.2175066312997346e-09 2.2175066312997346e-09 2.2175066312997346e-09 2.2175066312997346e-09 2.2175066312997346e-09 2.2175066312997346e-09 2.2175066312997346e-09 2.2175066312997346e-09 2.2175066312997346e-09 2.2175066312997346e-09 2.2175066312997346e-09 2.2175066312997346e-09 2.2175066312997346e-09 2.2175066312997346e-09 2.2175066312997346e-09 2.2175066312997346e-09 2.2175066312997346e-09 2.2175066312997346e-09 1.1087533156498673e-09 2.2175066312997346e-09 4.435013262599469e-09 4.435013262599469e-09 4.435013262599469e-09 4.435013262599469e-09 4.435013262599469e-09 4.435013262599469e-09 4.435013262599469e-09 4.435013262599469e-09 4.435013262599469e-09 4.435013262599469e-09 4.435013262599469e-09 4.435013262599469e-09 4.435013262599469e-09 4.435013262599469e-09 4.435013262599469e-09 4.435013262599469e-09 4.435013262599469e-09 4.435013262599469e-09 4.435013262599469e-09 4.435013262599469e-09 4.435013262599469e-09 4.435013262599469e-09 4.435013262599469e-09 4.435013262599469e-09 4.435013262599469e-09 4.435013262599469e-09 4.435013262599469e-09 4.435013262599469e-09 4.435013262599469e-09 4.435013262599469e-09 4.435013262599469e-09 4.435013262599469e-09 4.435013262599469e-09 4.435013262599469e-09 4.435013262599469e-09 4.435013262599469e-09 4.435013262599469e-09 4.435013262599469e-09 2.2175066312997346e-09 2.2175066312997346e-09 4.435013262599469e-09 4.435013262599469e-09 4.435013262599469e-09 4.435013262599469e-09 4.435013262599469e-09 4.435013262599469e-09 4.435013262599469e-09 4.435013262599469e-09 4.435013262599469e-09 4.435013262599469e-09 4.435013262599469e-09 4.435013262599469e-09 4.435013262599469e-09 4.435013262599469e-09 4.435013262599469e-09 4.435013262599469e-09 4.435013262599469e-09 4.435013262599469e-09 4.435013262599469e-09 4.435013262599469e-09 4.435013262599469e-09 4.435013262599469e-09 4.435013262599469e-09 4.435013262599469e-09 4.435013262599469e-09 4.435013262599469e-09 4.435013262599469e-09 4.435013262599469e-09 4.435013262599469e-09 4.435013262599469e-09 4.435013262599469e-09 4.435013262599469e-09 4.435013262599469e-09 4.435013262599469e-09 4.435013262599469e-09 4.435013262599469e-09 4.435013262599469e-09 4.435013262599469e-09 2.2175066312997346e-09 2.2175066312997346e-09 4.435013262599469e-09 4.435013262599469e-09 4.435013262599469e-09 4.435013262599469e-09 4.435013262599469e-09 4.435013262599469e-09 4.435013262599469e-09 4.435013262599469e-09 4.435013262599469e-09 4.435013262599469e-09 4.435013262599469e-09 4.435013262599469e-09 4.435013262599469e-09 4.435013262599469e-09 4.435013262599469e-09 4.435013262599469e-09 4.435013262599469e-09 4.435013262599469e-09 4.435013262599469e-09 4.435013262599469e-09 4.435013262599469e-09 4.435013262599469e-09 4.435013262599469e-09 4.435013262599469e-09 4.435013262599469e-09 4.435013262599469e-09 4.435013262599469e-09 4.435013262599469e-09 4.435013262599469e-09 4.435013262599469e-09 4.435013262599469e-09 4.435013262599469e-09 4.435013262599469e-09 4.435013262599469e-09 4.435013262599469e-09 4.435013262599469e-09 4.435013262599469e-09 4.435013262599469e-09 2.2175066312997346e-09 2.2175066312997346e-09 4.435013262599469e-09 4.435013262599469e-09 4.435013262599469e-09 4.435013262599469e-09 4.435013262599469e-09 4.435013262599469e-09 4.435013262599469e-09 4.435013262599469e-09 4.435013262599469e-09 4.435013262599469e-09 4.435013262599469e-09 4.435013262599469e-09 4.435013262599469e-09 4.435013262599469e-09 4.435013262599469e-09 4.435013262599469e-09 4.435013262599469e-09 4.435013262599469e-09 4.435013262599469e-09 4.435013262599469e-09 4.435013262599469e-09 4.435013262599469e-09 4.435013262599469e-09 4.435013262599469e-09 4.435013262599469e-09 4.435013262599469e-09 4.435013262599469e-09 4.435013262599469e-09 4.435013262599469e-09 4.435013262599469e-09 4.435013262599469e-09 4.435013262599469e-09 4.435013262599469e-09 4.435013262599469e-09 4.435013262599469e-09 4.435013262599469e-09 4.435013262599469e-09 4.435013262599469e-09 2.2175066312997346e-09 2.2175066312997346e-09 4.435013262599469e-09 4.435013262599469e-09 4.435013262599469e-09 4.435013262599469e-09 4.435013262599469e-09 4.435013262599469e-09 4.435013262599469e-09 4.435013262599469e-09 4.435013262599469e-09 4.435013262599469e-09 4.435013262599469e-09 4.435013262599469e-09 4.435013262599469e-09 4.435013262599469e-09 4.435013262599469e-09 4.435013262599469e-09 4.435013262599469e-09 4.435013262599469e-09 4.435013262599469e-09 4.435013262599469e-09 4.435013262599469e-09 4.435013262599469e-09 4.435013262599469e-09 4.435013262599469e-09 4.435013262599469e-09 4.435013262599469e-09 4.435013262599469e-09 4.435013262599469e-09 4.435013262599469e-09 4.435013262599469e-09 4.435013262599469e-09 4.435013262599469e-09 4.435013262599469e-09 4.435013262599469e-09 4.435013262599469e-09 4.435013262599469e-09 4.435013262599469e-09 4.435013262599469e-09 2.2175066312997346e-09 2.2175066312997346e-09 4.435013262599469e-09 4.435013262599469e-09 4.435013262599469e-09 4.435013262599469e-09 4.435013262599469e-09 4.435013262599469e-09 4.435013262599469e-09 4.435013262599469e-09 4.435013262599469e-09 4.435013262599469e-09 4.435013262599469e-09 4.435013262599469e-09 4.435013262599469e-09 4.435013262599469e-09 4.435013262599469e-09 4.435013262599469e-09 4.435013262599469e-09 4.435013262599469e-09 4.435013262599469e-09 4.435013262599469e-09 4.435013262599469e-09 4.435013262599469e-09 4.435013262599469e-09 4.435013262599469e-09 4.435013262599469e-09 4.435013262599469e-09 4.435013262599469e-09 4.435013262599469e-09 4.435013262599469e-09 4.435013262599469e-09 4.435013262599469e-09 4.435013262599469e-09 4.435013262599469e-09 4.435013262599469e-09 4.435013262599469e-09 4.435013262599469e-09 4.435013262599469e-09 4.435013262599469e-09 2.2175066312997346e-09 2.2175066312997346e-09 4.435013262599469e-09 4.435013262599469e-09 4.435013262599469e-09 4.435013262599469e-09 4.435013262599469e-09 4.435013262599469e-09 4.435013262599469e-09 4.435013262599469e-09 4.435013262599469e-09 4.435013262599469e-09 4.435013262599469e-09 4.435013262599469e-09 4.435013262599469e-09 4.435013262599469e-09 4.435013262599469e-09 4.435013262599469e-09 4.435013262599469e-09 4.435013262599469e-09 4.435013262599469e-09 4.435013262599469e-09 4.435013262599469e-09 4.435013262599469e-09 4.435013262599469e-09 4.435013262599469e-09 4.435013262599469e-09 4.435013262599469e-09 4.435013262599469e-09 4.435013262599469e-09 4.435013262599469e-09 4.435013262599469e-09 4.435013262599469e-09 4.435013262599469e-09 4.435013262599469e-09 4.435013262599469e-09 4.435013262599469e-09 4.435013262599469e-09 4.435013262599469e-09 4.435013262599469e-09 2.2175066312997346e-09 2.2175066312997346e-09 4.435013262599469e-09 4.435013262599469e-09 4.435013262599469e-09 4.435013262599469e-09 4.435013262599469e-09 4.435013262599469e-09 4.435013262599469e-09 4.435013262599469e-09 4.435013262599469e-09 4.435013262599469e-09 4.435013262599469e-09 4.435013262599469e-09 4.435013262599469e-09 4.435013262599469e-09 4.435013262599469e-09 4.435013262599469e-09 4.435013262599469e-09 4.435013262599469e-09 4.435013262599469e-09 4.435013262599469e-09 4.435013262599469e-09 4.435013262599469e-09 4.435013262599469e-09 4.435013262599469e-09 4.435013262599469e-09 4.435013262599469e-09 4.435013262599469e-09 4.435013262599469e-09 4.435013262599469e-09 4.435013262599469e-09 4.435013262599469e-09 4.435013262599469e-09 4.435013262599469e-09 4.435013262599469e-09 4.435013262599469e-09 4.435013262599469e-09 4.435013262599469e-09 4.435013262599469e-09 2.2175066312997346e-09 2.2175066312997346e-09 4.435013262599469e-09 4.435013262599469e-09 4.435013262599469e-09 4.435013262599469e-09 4.435013262599469e-09 4.435013262599469e-09 4.435013262599469e-09 4.435013262599469e-09 4.435013262599469e-09 4.435013262599469e-09 4.435013262599469e-09 4.435013262599469e-09 4.435013262599469e-09 4.435013262599469e-09 4.435013262599469e-09 4.435013262599469e-09 4.435013262599469e-09 4.435013262599469e-09 4.435013262599469e-09 4.435013262599469e-09 4.435013262599469e-09 4.435013262599469e-09 4.435013262599469e-09 4.435013262599469e-09 4.435013262599469e-09 4.435013262599469e-09 4.435013262599469e-09 4.435013262599469e-09 4.435013262599469e-09 4.435013262599469e-09 4.435013262599469e-09 4.435013262599469e-09 4.435013262599469e-09 4.435013262599469e-09 4.435013262599469e-09 4.435013262599469e-09 4.435013262599469e-09 4.435013262599469e-09 2.2175066312997346e-09 2.2175066312997346e-09 4.435013262599469e-09 4.435013262599469e-09 4.435013262599469e-09 4.435013262599469e-09 4.435013262599469e-09 4.435013262599469e-09 4.435013262599469e-09 4.435013262599469e-09 4.435013262599469e-09 4.435013262599469e-09 4.435013262599469e-09 4.435013262599469e-09 4.435013262599469e-09 4.435013262599469e-09 4.435013262599469e-09 4.435013262599469e-09 4.435013262599469e-09 4.435013262599469e-09 4.435013262599469e-09 4.435013262599469e-09 4.435013262599469e-09 4.435013262599469e-09 4.435013262599469e-09 4.435013262599469e-09 4.435013262599469e-09 4.435013262599469e-09 4.435013262599469e-09 4.435013262599469e-09 4.435013262599469e-09 4.435013262599469e-09 4.435013262599469e-09 4.435013262599469e-09 4.435013262599469e-09 4.435013262599469e-09 4.435013262599469e-09 4.435013262599469e-09 4.435013262599469e-09 4.435013262599469e-09 2.2175066312997346e-09 2.2175066312997346e-09 4.435013262599469e-09 4.435013262599469e-09 4.435013262599469e-09 4.435013262599469e-09 4.435013262599469e-09 4.435013262599469e-09 4.435013262599469e-09 4.435013262599469e-09 4.435013262599469e-09 4.435013262599469e-09 4.435013262599469e-09 4.435013262599469e-09 4.435013262599469e-09 4.435013262599469e-09 4.435013262599469e-09 4.435013262599469e-09 4.435013262599469e-09 4.435013262599469e-09 4.435013262599469e-09 4.435013262599469e-09 4.435013262599469e-09 4.435013262599469e-09 4.435013262599469e-09 4.435013262599469e-09 4.435013262599469e-09 4.435013262599469e-09 4.435013262599469e-09 4.435013262599469e-09 4.435013262599469e-09 4.435013262599469e-09 4.435013262599469e-09 4.435013262599469e-09 4.435013262599469e-09 4.435013262599469e-09 4.435013262599469e-09 4.435013262599469e-09 4.435013262599469e-09 4.435013262599469e-09 2.2175066312997346e-09 2.2175066312997346e-09 4.435013262599469e-09 4.435013262599469e-09 4.435013262599469e-09 4.435013262599469e-09 4.435013262599469e-09 4.435013262599469e-09 4.435013262599469e-09 4.435013262599469e-09 4.435013262599469e-09 4.435013262599469e-09 4.435013262599469e-09 4.435013262599469e-09 4.435013262599469e-09 4.435013262599469e-09 4.435013262599469e-09 4.435013262599469e-09 4.435013262599469e-09 4.435013262599469e-09 4.435013262599469e-09 4.435013262599469e-09 4.435013262599469e-09 4.435013262599469e-09 4.435013262599469e-09 4.435013262599469e-09 4.435013262599469e-09 4.435013262599469e-09 4.435013262599469e-09 4.435013262599469e-09 4.435013262599469e-09 4.435013262599469e-09 4.435013262599469e-09 4.435013262599469e-09 4.435013262599469e-09 4.435013262599469e-09 4.435013262599469e-09 4.435013262599469e-09 4.435013262599469e-09 4.435013262599469e-09 2.2175066312997346e-09 2.2175066312997346e-09 4.435013262599469e-09 4.435013262599469e-09 4.435013262599469e-09 4.435013262599469e-09 4.435013262599469e-09 4.435013262599469e-09 4.435013262599469e-09 4.435013262599469e-09 4.435013262599469e-09 4.435013262599469e-09 4.435013262599469e-09 4.435013262599469e-09 4.435013262599469e-09 4.435013262599469e-09 4.435013262599469e-09 4.435013262599469e-09 4.435013262599469e-09 4.435013262599469e-09 4.435013262599469e-09 4.435013262599469e-09 4.435013262599469e-09 4.435013262599469e-09 4.435013262599469e-09 4.435013262599469e-09 4.435013262599469e-09 4.435013262599469e-09 4.435013262599469e-09 4.435013262599469e-09 4.435013262599469e-09 4.435013262599469e-09 4.435013262599469e-09 4.435013262599469e-09 4.435013262599469e-09 4.435013262599469e-09 4.435013262599469e-09 4.435013262599469e-09 4.435013262599469e-09 4.435013262599469e-09 2.2175066312997346e-09 2.2175066312997346e-09 4.435013262599469e-09 4.435013262599469e-09 4.435013262599469e-09 4.435013262599469e-09 4.435013262599469e-09 4.435013262599469e-09 4.435013262599469e-09 4.435013262599469e-09 4.435013262599469e-09 4.435013262599469e-09 4.435013262599469e-09 4.435013262599469e-09 4.435013262599469e-09 4.435013262599469e-09 4.435013262599469e-09 4.435013262599469e-09 4.435013262599469e-09 4.435013262599469e-09 4.435013262599469e-09 4.435013262599469e-09 4.435013262599469e-09 4.435013262599469e-09 4.435013262599469e-09 4.435013262599469e-09 4.435013262599469e-09 4.435013262599469e-09 4.435013262599469e-09 4.435013262599469e-09 4.435013262599469e-09 4.435013262599469e-09 4.435013262599469e-09 4.435013262599469e-09 4.435013262599469e-09 4.435013262599469e-09 4.435013262599469e-09 4.435013262599469e-09 4.435013262599469e-09 4.435013262599469e-09 2.2175066312997346e-09 2.2175066312997346e-09 4.435013262599469e-09 4.435013262599469e-09 4.435013262599469e-09 4.435013262599469e-09 4.435013262599469e-09 4.435013262599469e-09 4.435013262599469e-09 4.435013262599469e-09 4.435013262599469e-09 4.435013262599469e-09 4.435013262599469e-09 4.435013262599469e-09 4.435013262599469e-09 4.435013262599469e-09 4.435013262599469e-09 4.435013262599469e-09 4.435013262599469e-09 4.435013262599469e-09 4.435013262599469e-09 4.435013262599469e-09 4.435013262599469e-09 4.435013262599469e-09 4.435013262599469e-09 4.435013262599469e-09 4.435013262599469e-09 4.435013262599469e-09 4.435013262599469e-09 4.435013262599469e-09 4.435013262599469e-09 4.435013262599469e-09 4.435013262599469e-09 4.435013262599469e-09 4.435013262599469e-09 4.435013262599469e-09 4.435013262599469e-09 4.435013262599469e-09 4.435013262599469e-09 4.435013262599469e-09 2.2175066312997346e-09 2.2175066312997346e-09 4.435013262599469e-09 4.435013262599469e-09 4.435013262599469e-09 4.435013262599469e-09 4.435013262599469e-09 4.435013262599469e-09 4.435013262599469e-09 4.435013262599469e-09 4.435013262599469e-09 4.435013262599469e-09 4.435013262599469e-09 4.435013262599469e-09 4.435013262599469e-09 4.435013262599469e-09 4.435013262599469e-09 4.435013262599469e-09 4.435013262599469e-09 4.435013262599469e-09 4.435013262599469e-09 4.435013262599469e-09 4.435013262599469e-09 4.435013262599469e-09 4.435013262599469e-09 4.435013262599469e-09 4.435013262599469e-09 4.435013262599469e-09 4.435013262599469e-09 4.435013262599469e-09 4.435013262599469e-09 4.435013262599469e-09 4.435013262599469e-09 4.435013262599469e-09 4.435013262599469e-09 4.435013262599469e-09 4.435013262599469e-09 4.435013262599469e-09 4.435013262599469e-09 4.435013262599469e-09 2.2175066312997346e-09 2.2175066312997346e-09 4.435013262599469e-09 4.435013262599469e-09 4.435013262599469e-09 4.435013262599469e-09 4.435013262599469e-09 4.435013262599469e-09 4.435013262599469e-09 4.435013262599469e-09 4.435013262599469e-09 4.435013262599469e-09 4.435013262599469e-09 4.435013262599469e-09 4.435013262599469e-09 4.435013262599469e-09 4.435013262599469e-09 4.435013262599469e-09 4.435013262599469e-09 4.435013262599469e-09 4.435013262599469e-09 4.435013262599469e-09 4.435013262599469e-09 4.435013262599469e-09 4.435013262599469e-09 4.435013262599469e-09 4.435013262599469e-09 4.435013262599469e-09 4.435013262599469e-09 4.435013262599469e-09 4.435013262599469e-09 4.435013262599469e-09 4.435013262599469e-09 4.435013262599469e-09 4.435013262599469e-09 4.435013262599469e-09 4.435013262599469e-09 4.435013262599469e-09 4.435013262599469e-09 4.435013262599469e-09 2.2175066312997346e-09 2.2175066312997346e-09 4.435013262599469e-09 4.435013262599469e-09 4.435013262599469e-09 4.435013262599469e-09 4.435013262599469e-09 4.435013262599469e-09 4.435013262599469e-09 4.435013262599469e-09 4.435013262599469e-09 4.435013262599469e-09 4.435013262599469e-09 4.435013262599469e-09 4.435013262599469e-09 4.435013262599469e-09 4.435013262599469e-09 4.435013262599469e-09 4.435013262599469e-09 4.435013262599469e-09 4.435013262599469e-09 4.435013262599469e-09 4.435013262599469e-09 4.435013262599469e-09 4.435013262599469e-09 4.435013262599469e-09 4.435013262599469e-09 4.435013262599469e-09 4.435013262599469e-09 4.435013262599469e-09 4.435013262599469e-09 4.435013262599469e-09 4.435013262599469e-09 4.435013262599469e-09 4.435013262599469e-09 4.435013262599469e-09 4.435013262599469e-09 4.435013262599469e-09 4.435013262599469e-09 4.435013262599469e-09 2.2175066312997346e-09 2.2175066312997346e-09 4.435013262599469e-09 4.435013262599469e-09 4.435013262599469e-09 4.435013262599469e-09 4.435013262599469e-09 4.435013262599469e-09 4.435013262599469e-09 4.435013262599469e-09 4.435013262599469e-09 4.435013262599469e-09 4.435013262599469e-09 4.435013262599469e-09 4.435013262599469e-09 4.435013262599469e-09 4.435013262599469e-09 4.435013262599469e-09 4.435013262599469e-09 4.435013262599469e-09 4.435013262599469e-09 4.435013262599469e-09 4.435013262599469e-09 4.435013262599469e-09 4.435013262599469e-09 4.435013262599469e-09 4.435013262599469e-09 4.435013262599469e-09 4.435013262599469e-09 4.435013262599469e-09 4.435013262599469e-09 4.435013262599469e-09 4.435013262599469e-09 4.435013262599469e-09 4.435013262599469e-09 4.435013262599469e-09 4.435013262599469e-09 4.435013262599469e-09 4.435013262599469e-09 4.435013262599469e-09 2.2175066312997346e-09 2.2175066312997346e-09 4.435013262599469e-09 4.435013262599469e-09 4.435013262599469e-09 4.435013262599469e-09 4.435013262599469e-09 4.435013262599469e-09 4.435013262599469e-09 4.435013262599469e-09 4.435013262599469e-09 4.435013262599469e-09 4.435013262599469e-09 4.435013262599469e-09 4.435013262599469e-09 4.435013262599469e-09 4.435013262599469e-09 4.435013262599469e-09 4.435013262599469e-09 4.435013262599469e-09 4.435013262599469e-09 4.435013262599469e-09 4.435013262599469e-09 4.435013262599469e-09 4.435013262599469e-09 4.435013262599469e-09 4.435013262599469e-09 4.435013262599469e-09 4.435013262599469e-09 4.435013262599469e-09 4.435013262599469e-09 4.435013262599469e-09 4.435013262599469e-09 4.435013262599469e-09 4.435013262599469e-09 4.435013262599469e-09 4.435013262599469e-09 4.435013262599469e-09 4.435013262599469e-09 4.435013262599469e-09 2.2175066312997346e-09 2.2175066312997346e-09 4.435013262599469e-09 4.435013262599469e-09 4.435013262599469e-09 4.435013262599469e-09 4.435013262599469e-09 4.435013262599469e-09 4.435013262599469e-09 4.435013262599469e-09 4.435013262599469e-09 4.435013262599469e-09 4.435013262599469e-09 4.435013262599469e-09 4.435013262599469e-09 4.435013262599469e-09 4.435013262599469e-09 4.435013262599469e-09 4.435013262599469e-09 4.435013262599469e-09 4.435013262599469e-09 4.435013262599469e-09 4.435013262599469e-09 4.435013262599469e-09 4.435013262599469e-09 4.435013262599469e-09 4.435013262599469e-09 4.435013262599469e-09 4.435013262599469e-09 4.435013262599469e-09 4.435013262599469e-09 4.435013262599469e-09 4.435013262599469e-09 4.435013262599469e-09 4.435013262599469e-09 4.435013262599469e-09 4.435013262599469e-09 4.435013262599469e-09 4.435013262599469e-09 4.435013262599469e-09 2.2175066312997346e-09 2.2175066312997346e-09 4.435013262599469e-09 4.435013262599469e-09 4.435013262599469e-09 4.435013262599469e-09 4.435013262599469e-09 4.435013262599469e-09 4.435013262599469e-09 4.435013262599469e-09 4.435013262599469e-09 4.435013262599469e-09 4.435013262599469e-09 4.435013262599469e-09 4.435013262599469e-09 4.435013262599469e-09 4.435013262599469e-09 4.435013262599469e-09 4.435013262599469e-09 4.435013262599469e-09 4.435013262599469e-09 4.435013262599469e-09 4.435013262599469e-09 4.435013262599469e-09 4.435013262599469e-09 4.435013262599469e-09 4.435013262599469e-09 4.435013262599469e-09 4.435013262599469e-09 4.435013262599469e-09 4.435013262599469e-09 4.435013262599469e-09 4.435013262599469e-09 4.435013262599469e-09 4.435013262599469e-09 4.435013262599469e-09 4.435013262599469e-09 4.435013262599469e-09 4.435013262599469e-09 4.435013262599469e-09 2.2175066312997346e-09 2.2175066312997346e-09 4.435013262599469e-09 4.435013262599469e-09 4.435013262599469e-09 4.435013262599469e-09 4.435013262599469e-09 4.435013262599469e-09 4.435013262599469e-09 4.435013262599469e-09 4.435013262599469e-09 4.435013262599469e-09 4.435013262599469e-09 4.435013262599469e-09 4.435013262599469e-09 4.435013262599469e-09 4.435013262599469e-09 4.435013262599469e-09 4.435013262599469e-09 4.435013262599469e-09 4.435013262599469e-09 4.435013262599469e-09 4.435013262599469e-09 4.435013262599469e-09 4.435013262599469e-09 4.435013262599469e-09 4.435013262599469e-09 4.435013262599469e-09 4.435013262599469e-09 4.435013262599469e-09 4.435013262599469e-09 4.435013262599469e-09 4.435013262599469e-09 4.435013262599469e-09 4.435013262599469e-09 4.435013262599469e-09 4.435013262599469e-09 4.435013262599469e-09 4.435013262599469e-09 4.435013262599469e-09 2.2175066312997346e-09 2.2175066312997346e-09 4.435013262599469e-09 4.435013262599469e-09 4.435013262599469e-09 4.435013262599469e-09 4.435013262599469e-09 4.435013262599469e-09 4.435013262599469e-09 4.435013262599469e-09 4.435013262599469e-09 4.435013262599469e-09 4.435013262599469e-09 4.435013262599469e-09 4.435013262599469e-09 4.435013262599469e-09 4.435013262599469e-09 4.435013262599469e-09 4.435013262599469e-09 4.435013262599469e-09 4.435013262599469e-09 4.435013262599469e-09 4.435013262599469e-09 4.435013262599469e-09 4.435013262599469e-09 4.435013262599469e-09 4.435013262599469e-09 4.435013262599469e-09 4.435013262599469e-09 4.435013262599469e-09 4.435013262599469e-09 4.435013262599469e-09 4.435013262599469e-09 4.435013262599469e-09 4.435013262599469e-09 4.435013262599469e-09 4.435013262599469e-09 4.435013262599469e-09 4.435013262599469e-09 4.435013262599469e-09 2.2175066312997346e-09 2.2175066312997346e-09 4.435013262599469e-09 4.435013262599469e-09 4.435013262599469e-09 4.435013262599469e-09 4.435013262599469e-09 4.435013262599469e-09 4.435013262599469e-09 4.435013262599469e-09 4.435013262599469e-09 4.435013262599469e-09 4.435013262599469e-09 4.435013262599469e-09 4.435013262599469e-09 4.435013262599469e-09 4.435013262599469e-09 4.435013262599469e-09 4.435013262599469e-09 4.435013262599469e-09 4.435013262599469e-09 4.435013262599469e-09 4.435013262599469e-