<?xml version="1.0"?>
<VTKFile type="ImageData" version="0.1" byte_order="LittleEndian">
<ImageData Origin="-0.00132 0.0" Spacing="0.0002933333333333333 0.000264" WholeExtent="0 9 0 30 0 0">
<PointData>
<DataArray Name="object_id" NumberOfComponents="1" format="ascii" type="Int32">
2 2 2 2 2 2 2 2 2 2 0 0 0 0 0 0 0 0 0 0 0 0 0 0 0 0 0 0 0 0 0 0 0 0 0 0 0 0 0 0 0 0 0 0 0 0 0 0 0 0 1 1 0 0 0 0 0 0 1 1 1 1 0 0 0 0 0 0 1 1 0 0 0 0 0 0 0 0 0 0 0 0 0 0 0 0 0 0 0 0 0 0 0 0 0 0 0 0 0 0 0 0 0 0 0 0 0 0 0 0 0 0 0 0 0 0 0 0 0 0 0 0 0 0 0 0 0 0 0 0 0 0 0 0 0 0 0 0 0 0 0 0 0 0 0 0 0 0 0 0 0 0 0 0 0 0 0 0 0 0 1 1 0 0 0 0 0 0 1 1 1 1 0 0 0 0 0 0 1 1 1 1 0 0 0 0 0 0 1 1 0 0 0 0 0 0 0 0 0 0 0 0 0 0 0 0 0 0 0 0 0 0 0 0 0 0 0 0 0 0 0 0 0 0 0 0 0 0 0 0 0 0 0 0 0 0 0 0 0 0 0 0 0 0 0 0 0 0 0 0 0 0 0 0 0 0 0 0 0 0 0 0 0 0 0 0 0 0 0 0 0 0 0 0 0 0 0 0 0 0 0 0 0 0 0 0 0 0 0 0 0 0 0 0 0 0 0 0 0 0 0 0 0 0 0 0 0 0 0 0 
</DataArray>
<DataArray Name="NodeVol" NumberOfComponents="1" format="ascii" type="Float64">
1.9360000000000003e-08 3.8720000000000005e-08 3.8720000000000005e-08 3.8720000000000005e-08 3.8720000000000005e-08 3.8720000000000005e-08 3.8720000000000005e-08 3.8720000000000005e-08 3.8720000000000005e-08 1.9360000000000003e-08 3.8720000000000005e-08 7.744000000000001e-08 7.744000000000001e-08 7.744000000000001e-08 7.744000000000001e-08 7.744000000000001e-08 7.744000000000001e-08 7.744000000000001e-08 7.744000000000001e-08 3.8720000000000005e-08 3.8720000000000005e-08 7.744000000000001e-08 7.744000000000001e-08 7.744000000000001e-08 7.744000000000001e-08 7.744000000000001e-08 7.744000000000001e-08 7.744000000000001e-08 7.744000000000001e-08 3.8720000000000005e-08 3.8720000000000005e-08 7.744000000000001e-08 7.744000000000001e-08 7.744000000000001e-08 7.744000000000001e-08 7.744000000000001e-08 7.744000000000001e-08 7.744000000000001e-08 7.744000000000001e-08 3.8720000000000005e-08 3.8720000000000005e-08 7.744000000000001e-08 7.744000000000001e-08 7.744000000000001e-08 7.744000000000001e-08 7.744000000000001e-08 7.744000000000001e-08 7.744000000000001e-08 7.744000000000001e-08 3.8720000000000005e-08 3.8720000000000005e-08 7.744000000000001e-08 7.744000000000001e-08 7.744000000000001e-08 7.744000000000001e-08 7.744000000000001e-08 7.744000000000001e-08 7.744000000000001e-08 7.744000000000001e-08 3.8720000000000005e-08 3.8720000000000005e-08 7.744000000000001e-08 7.744000000000001e-08 7.744000000000001e-08 7.744000000000001e-08 7.744000000000001e-08 7.744000000000001e-08 7.744000000000001e-08 7.744000000000001e-08 3.8720000000000005e-08 3.8720000000000005e-08 7.744000000000001e-08 7.744000000000001e-08 7.744000000000001e-08 7.744000000000001e-08 7.744000000000001e-08 7.744000000000001e-08 7.744000000000001e-08 7.744000000000001e-08 3.8720000000000005e-08 3.8720000000000005e-08 7.744000000000001e-08 7.744000000000001e-08 7.744000000000001e-08 7.744000000000001e-08 7.744000000000001e-08 7.744000000000001e-08 7.744000000000001e-08 7.744000000000001e-08 3.8720000000000005e-08 3.8720000000000005e-08 7.744000000000001e-08 7.744000000000001e-08 7.744000000000001e-08 7.744000000000001e-08 7.744000000000001e-08 7.744000000000001e-08 7.744000000000001e-08 7.744000000000001e-08 3.8720000000000005e-08 3.8720000000000005e-08 7.744000000000001e-08 7.744000000000001e-08 7.744000000000001e-08 7.744000000000001e-08 7.744000000000001e-08 7.744000000000001e-08 7.744000000000001e-08 7.744000000000001e-08 3.8720000000000005e-08 3.8720000000000005e-08 7.744000000000001e-08 7.744000000000001e-08 7.744000000000001e-08 7.744000000000001e-08 7.744000000000001e-08 7.744000000000001e-08 7.744000000000001e-08 7.744000000000001e-08 3.8720000000000005e-08 3.8720000000000005e-08 7.744000000000001e-08 7.744000000000001e-08 7.744000000000001e-08 7.744000000000001e-08 7.744000000000001e-08 7.744000000000001e-08 7.744000000000001e-08 7.744000000000001e-08 3.8720000000000005e-08 3.8720000000000005e-08 7.744000000000001e-08 7.744000000000001e-08 7.744000000000001e-08 7.744000000000001e-08 7.744000000000001e-08 7.744000000000001e-08 7.744000000000001e-08 7.744000000000001e-08 3.8720000000000005e-08 3.8720000000000005e-08 7.744000000000001e-08 7.744000000000001e-08 7.744000000000001e-08 7.744000000000001e-08 7.744000000000001e-08 7.744000000000001e-08 7.744000000000001e-08 7.744000000000001e-08 3.8720000000000005e-08 3.8720000000000005e-08 7.744000000000001e-08 7.744000000000001e-08 7.744000000000001e-08 7.744000000000001e-08 7.744000000000001e-08 7.744000000000001e-08 7.744000000000001e-08 7.744000000000001e-08 3.8720000000000005e-08 3.8720000000000005e-08 7.744000000000001e-08 7.744000000000001e-08 7.744000000000001e-08 7.744000000000001e-08 7.744000000000001e-08 7.744000000000001e-08 7.744000000000001e-08 7.744000000000001e-08 3.8720000000000005e-08 3.8720000000000005e-08 7.744000000000001e-08 7.744000000000001e-08 7.744000000000001e-08 7.744000000000001e-08 7.744000000000001e-08 7.744000000000001e-08 7.744000000000001e-08 7.744000000000001e-08 3.8720000000000005e-08 3.8720000000000005e-08 7.744000000000001e-08 7.744000000000001e-08 7.744000000000001e-08 7.744000000000001e-08 7.744000000000001e-08 7.744000000000001e-08 7.744000000000001e-08 7.744000000000001e-08 3.8720000000000005e-08 3.8720000000000005e-08 7.744000000000001e-08 7.744000000000001e-08 7.744000000000001e-08 7.744000000000001e-08 7.744000000000001e-08 7.744000000000001e-08 7.744000000000001e-08 7.744000000000001e-08 3.8720000000000005e-08 3.8720000000000005e-08 7.744000000000001e-08 7.744000000000001e-08 7.744000000000001e-08 7.744000000000001e-08 7.744000000000001e-08 7.744000000000001e-08 7.744000000000001e-08 7.744000000000001e-08 3.8720000000000005e-08 3.8720000000000005e-08 7.744000000000001e-08 7.744000000000001e-08 7.744000000000001e-08 7.744000000000001e-08 7.744000000000001e-08 7.744000000000001e-08 7.744000000000001e-08 7.744000000000001e-08 3.8720000000000005e-08 3.8720000000000005e-08 7.744000000000001e-08 7.744000000000001e-08 7.744000000000001e-08 7.744000000000001e-08 7.744000000000001e-08 7.744000000000001e-08 7.744000000000001e-08 7.744000000000001e-08 3.8720000000000005e-08 3.8720000000000005e-08 7.744000000000001e-08 7.744000000000001e-08 7.744000000000001e-08 7.744000000000001e-08 7.744000000000001e-08 7.744000000000001e-08 7.744000000000001e-08 7.744000000000001e-08 3.8720000000000005e-08 3.8720000000000005e-08 7.744000000000001e-08 7.744000000000001e-08 7.744000000000001e-08 7.744000000000001e-08 7.744000000000001e-08 7.744000000000001e-08 7.744000000000001e-08 7.744000000000001e-08 3.8720000000000005e-08 3.8720000000000005e-08 7.744000000000001e-08 7.744000000000001e-08 7.744000000000001e-08 7.744000000000001e-08 7.744000000000001e-08 7.744000000000001e-08 7.744000000000001e-08 7.744000000000001e-08 3.8720000000000005e-08 3.8720000000000005e-08 7.744000000000001e-08 7.744000000000001e-08 7.744000000000001e-08 7.744000000000001e-08 7.744000000000001e-08 7.744000000000001e-08 7.744000000000001e-08 7.744000000000001e-08 3.8720000000000005e-08 3.8720000000000005e-08 7.744000000000001e-08 7.744000000000001e-08 7.744000000000001e-08 7.744000000000001e-08 7.744000000000001e-08 7.744000000000001e-08 7.744000000000001e-08 7.744000000000001e-08 3.8720000000000005e-08 3.8720000000000005e-08 7.744000000000001e-08 7.744000000000001e-08 7.744000000000001e-08 7.744000000000001e-08 7.744000000000001e-08 7.744000000000001e-08 7.744000000000001e-08 7.744000000000001e-08 3.8720000000000005e-08 3.8720000000000005e-08 7.744000000000001e-08 7.744000000000001e-08 7.744000000000001e-08 7.744000000000001e-08 7.744000000000001e-08 7.744000000000001e-08 7.744000000000001e-08 7.744000000000001e-08 3.8720000000000005e-08 1.9360000000000003e-08 3.8720000000000005e-08 3.8720000000000005e-08 3.8720000000000005e-08 3.8720000000000005e-08 3.8720000000000005e-08 3.8720000000000005e-08 3.8720000000000005e-08 3.8720000000000005e-08 1.9360000000000003e-08 
</DataArray>
<DataArray Name="phi" NumberOfComponents="1" format="ascii" type="Float64">
0.0 0.0 0.0 0.0 0.0 0.0 0.0 0.0 0.0 0.0 0.0 0.0 0.0 0.0 0.0 0.0 0.0 0.0 0.0 0.0 0.0 0.0 0.0 0.0 0.0 0.0 0.0 0.0 0.0 0.0 0.0 0.0 0.0 0.0 0.0 0.0 0.0 0.0 0.0 0.0 0.0 0.0 0.0 0.0 0.0 0.0 0.0 0.0 0.0 0.0 1.2 1.2 0.0 0.0 0.0 0.0 0.0 0.0 1.2 1.2 1.2 1.2 0.0 0.0 0.0 0.0 0.0 0.0 1.2 1.2 0.0 0.0 0.0 0.0 0.0 0.0 0.0 0.0 0.0 0.0 0.0 0.0 0.0 0.0 0.0 0.0 0.0 0.0 0.0 0.0 0.0 0.0 0.0 0.0 0.0 0.0 0.0 0.0 0.0 0.0 0.0 0.0 0.0 0.0 0.0 0.0 0.0 0.0 0.0 0.0 0.0 0.0 0.0 0.0 0.0 0.0 0.0 0.0 0.0 0.0 0.0 0.0 0.0 0.0 0.0 0.0 0.0 0.0 0.0 0.0 0.0 0.0 0.0 0.0 0.0 0.0 0.0 0.0 0.0 0.0 0.0 0.0 0.0 0.0 0.0 0.0 0.0 0.0 0.0 0.0 0.0 0.0 0.0 0.0 0.0 0.0 0.0 0.0 0.0 0.0 0.175 0.175 0.0 0.0 0.0 0.0 0.0 0.0 0.175 0.175 0.175 0.175 0.0 0.0 0.0 0.0 0.0 0.0 0.175 0.175 0.175 0.175 0.0 0.0 0.0 0.0 0.0 0.0 0.175 0.175 0.0 0.0 0.0 0.0 0.0 0.0 0.0 0.0 0.0 0.0 0.0 0.0 0.0 0.0 0.0 0.0 0.0 0.0 0.0 0.0 0.0 0.0 0.0 0.0 0.0 0.0 0.0 0.0 0.0 0.0 0.0 0.0 0.0 0.0 0.0 0.0 0.0 0.0 0.0 0.0 0.0 0.0 0.0 0.0 0.0 0.0 0.0 0.0 0.0 0.0 0.0 0.0 0.0 0.0 0.0 0.0 0.0 0.0 0.0 0.0 0.0 0.0 0.0 0.0 0.0 0.0 0.0 0.0 0.0 0.0 0.0 0.0 0.0 0.0 0.0 0.0 0.0 0.0 0.0 0.0 0.0 0.0 0.0 0.0 0.0 0.0 0.0 0.0 0.0 0.0 0.0 0.0 0.0 0.0 0.0 0.0 0.0 0.0 0.0 0.0 0.0 0.0 0.0 0.0 0.0 0.0 0.0 0.0 0.0 0.0 0.0 0.0 0.0 0.0 0.0 0.0 0.0 0.0 0.0 0.0 
</DataArray>
<DataArray Name="rho" NumberOfComponents="1" format="ascii" type="Float64">
1.2509732609329656e-08 1.2892227946821073e-08 1.2915101047434958e-08 1.2842132543713313e-08 1.2558522549570989e-08 1.2454309020368649e-08 1.283745166121689e-08 1.3139774422709828e-08 1.2745662089975427e-08 1.2784514883866361e-08 5.798921491110997e-09 5.818946605589375e-09 5.793720439943264e-09 5.773678820200124e-09 5.60296655844496e-09 5.547813462354258e-09 5.7493297335760386e-09 5.934483304260444e-09 5.700147613170847e-09 5.805222905401529e-09 0.0 0.0 0.0 0.0 0.0 0.0 0.0 0.0 0.0 0.0 0.0 0.0 0.0 0.0 0.0 0.0 0.0 0.0 0.0 0.0 0.0 0.0 0.0 0.0 0.0 0.0 0.0 0.0 0.0 0.0 0.0 0.0 0.0 0.0 0.0 0.0 0.0 0.0 0.0 0.0 0.0 0.0 0.0 0.0 0.0 0.0 0.0 0.0 0.0 0.0 0.0 0.0 0.0 0.0 0.0 0.0 0.0 0.0 0.0 0.0 0.0 0.0 0.0 0.0 0.0 0.0 0.0 0.0 0.0 0.0 0.0 0.0 0.0 0.0 0.0 0.0 0.0 0.0 0.0 0.0 0.0 0.0 0.0 0.0 0.0 0.0 0.0 0.0 0.0 0.0 0.0 0.0 0.0 0.0 0.0 0.0 0.0 0.0 0.0 0.0 0.0 0.0 0.0 0.0 0.0 0.0 0.0 0.0 0.0 0.0 0.0 0.0 0.0 0.0 0.0 0.0 0.0 0.0 0.0 0.0 0.0 0.0 0.0 0.0 0.0 0.0 0.0 0.0 0.0 0.0 0.0 0.0 0.0 0.0 0.0 0.0 0.0 0.0 0.0 0.0 0.0 0.0 0.0 0.0 0.0 0.0 0.0 0.0 0.0 0.0 0.0 0.0 0.0 0.0 0.0 0.0 0.0 0.0 0.0 0.0 0.0 0.0 0.0 0.0 0.0 0.0 0.0 0.0 0.0 0.0 0.0 0.0 0.0 0.0 0.0 0.0 0.0 0.0 0.0 0.0 0.0 0.0 0.0 0.0 0.0 0.0 0.0 0.0 0.0 0.0 0.0 0.0 0.0 0.0 0.0 0.0 0.0 0.0 0.0 0.0 0.0 0.0 0.0 0.0 0.0 0.0 0.0 0.0 0.0 0.0 0.0 0.0 0.0 0.0 0.0 0.0 0.0 0.0 0.0 0.0 0.0 0.0 0.0 0.0 0.0 0.0 0.0 0.0 0.0 0.0 0.0 0.0 0.0 0.0 0.0 0.0 0.0 0.0 0.0 0.0 0.0 0.0 0.0 0.0 0.0 0.0 0.0 0.0 0.0 0.0 0.0 0.0 0.0 0.0 0.0 0.0 0.0 0.0 0.0 0.0 0.0 0.0 0.0 0.0 0.0 0.0 0.0 0.0 0.0 0.0 0.0 0.0 0.0 0.0 0.0 0.0 0.0 0.0 0.0 0.0 0.0 0.0 0.0 0.0 0.0 0.0 0.0 0.0 0.0 0.0 
</DataArray>
<DataArray Name="ef" NumberOfComponents="2" format="ascii" type="Float64">
0.0 0.0 0.0 0.0 0.0 0.0 0.0 0.0 0.0 0.0 0.0 0.0 0.0 0.0 0.0 0.0 0.0 0.0 0.0 0.0 0.0 0.0 0.0 0.0 0.0 0.0 0.0 0.0 0.0 0.0 0.0 0.0 0.0 0.0 0.0 0.0 0.0 0.0 0.0 0.0 0.0 0.0 0.0 0.0 0.0 0.0 0.0 0.0 0.0 0.0 0.0 0.0 0.0 0.0 0.0 0.0 0.0 0.0 0.0 0.0 0.0 0.0 0.0 0.0 0.0 0.0 0.0 0.0 0.0 0.0 0.0 0.0 0.0 0.0 0.0 0.0 0.0 0.0 0.0 0.0 0.0 -2272.7272727272725 0.0 -2272.7272727272725 0.0 0.0 0.0 0.0 0.0 0.0 0.0 0.0 0.0 0.0 0.0 0.0 0.0 -2272.7272727272725 0.0 -2272.7272727272725 -2045.4545454545457 -2272.7272727272725 2045.4545454545455 -2272.7272727272725 2045.4545454545455 0.0 0.0 0.0 0.0 0.0 0.0 0.0 0.0 0.0 -2045.4545454545455 0.0 -2045.4545454545455 -2272.7272727272725 2045.4545454545457 -2272.7272727272725 -2045.4545454545457 2272.7272727272725 2045.4545454545455 2272.7272727272725 2045.4545454545455 0.0 0.0 0.0 0.0 0.0 0.0 0.0 0.0 0.0 -2045.4545454545455 0.0 -2045.4545454545455 2272.7272727272725 2045.4545454545457 2272.7272727272725 0.0 2272.7272727272725 0.0 2272.7272727272725 0.0 0.0 0.0 0.0 0.0 0.0 0.0 0.0 0.0 0.0 0.0 0.0 0.0 2272.7272727272725 0.0 2272.7272727272725 0.0 0.0 0.0 0.0 0.0 0.0 0.0 0.0 0.0 0.0 0.0 0.0 0.0 0.0 0.0 0.0 0.0 0.0 0.0 0.0 0.0 0.0 0.0 0.0 0.0 0.0 0.0 0.0 0.0 0.0 0.0 0.0 0.0 0.0 0.0 0.0 0.0 0.0 0.0 0.0 0.0 0.0 0.0 0.0 0.0 0.0 0.0 0.0 0.0 0.0 0.0 0.0 0.0 0.0 0.0 0.0 0.0 0.0 0.0 0.0 0.0 0.0 0.0 0.0 0.0 0.0 0.0 0.0 0.0 0.0 0.0 0.0 0.0 0.0 0.0 0.0 0.0 0.0 0.0 0.0 0.0 0.0 0.0 0.0 0.0 0.0 0.0 0.0 0.0 0.0 0.0 0.0 0.0 0.0 0.0 0.0 0.0 0.0 0.0 0.0 0.0 0.0 0.0 0.0 0.0 0.0 0.0 0.0 0.0 0.0 0.0 0.0 0.0 0.0 0.0 0.0 0.0 0.0 0.0 0.0 0.0 0.0 0.0 0.0 0.0 0.0 0.0 0.0 0.0 0.0 0.0 0.0 0.0 0.0 0.0 0.0 0.0 0.0 0.0 0.0 0.0 -331.4393939393939 0.0 -331.4393939393939 0.0 0.0 0.0 0.0 0.0 0.0 0.0 0.0 0.0 0.0 0.0 0.0 0.0 -331.4393939393939 0.0 -331.4393939393939 -298.2954545454546 -331.4393939393939 298.29545454545456 -331.4393939393939 298.29545454545456 0.0 0.0 0.0 0.0 0.0 0.0 0.0 0.0 0.0 -298.29545454545456 0.0 -298.29545454545456 -331.4393939393939 298.2954545454546 -331.4393939393939 -298.2954545454546 0.0 298.29545454545456 0.0 298.29545454545456 0.0 0.0 0.0 0.0 0.0 0.0 0.0 0.0 0.0 -298.29545454545456 0.0 -298.29545454545456 0.0 298.2954545454546 0.0 -298.2954545454546 331.4393939393939 298.29545454545456 331.4393939393939 298.29545454545456 0.0 0.0 0.0 0.0 0.0 0.0 0.0 0.0 0.0 -298.29545454545456 0.0 -298.29545454545456 331.4393939393939 298.2954545454546 331.4393939393939 0.0 331.4393939393939 0.0 331.4393939393939 0.0 0.0 0.0 0.0 0.0 0.0 0.0 0.0 0.0 0.0 0.0 0.0 0.0 331.4393939393939 0.0 331.4393939393939 0.0 0.0 0.0 0.0 0.0 0.0 0.0 0.0 0.0 0.0 0.0 0.0 0.0 0.0 0.0 0.0 0.0 0.0 0.0 0.0 0.0 0.0 0.0 0.0 0.0 0.0 0.0 0.0 0.0 0.0 0.0 0.0 0.0 0.0 0.0 0.0 0.0 0.0 0.0 0.0 0.0 0.0 0.0 0.0 0.0 0.0 0.0 0.0 0.0 0.0 0.0 0.0 0.0 0.0 0.0 0.0 0.0 0.0 0.0 0.0 0.0 0.0 0.0 0.0 0.0 0.0 0.0 0.0 0.0 0.0 0.0 0.0 0.0 0.0 0.0 0.0 0.0 0.0 0.0 0.0 0.0 0.0 0.0 0.0 0.0 0.0 0.0 0.0 0.0 0.0 0.0 0.0 0.0 0.0 0.0 0.0 0.0 0.0 0.0 0.0 0.0 0.0 0.0 0.0 0.0 0.0 0.0 0.0 0.0 0.0 0.0 0.0 0.0 0.0 0.0 0.0 0.0 0.0 0.0 0.0 0.0 0.0 0.0 0.0 0.0 0.0 0.0 0.0 0.0 0.0 0.0 0.0 0.0 0.0 0.0 0.0 0.0 0.0 0.0 0.0 0.0 0.0 0.0 0.0 0.0 0.0 0.0 0.0 0.0 0.0 0.0 0.0 0.0 0.0 0.0 0.0 0.0 0.0 0.0 0.0 0.0 0.0 0.0 0.0 0.0 0.0 0.0 0.0 0.0 0.0 0.0 0.0 0.0 0.0 0.0 0.0 0.0 0.0 0.0 0.0 0.0 0.0 0.0 0.0 0.0 0.0 0.0 0.0 0.0 0.0 0.0 0.0 0.0 0.0 0.0 0.0 0.0 0.0 0.0 0.0 0.0 0.0 0.0 0.0 0.0 0.0 0.0 0.0 0.0 0.0 0.0 0.0 0.0 0.0 0.0 0.0 0.0 0.0 0.0 0.0 
</DataArray>
<DataArray Name="nd.Xe+" NumberOfComponents="1" format="ascii" type="Float64">
7807961296281.759 8046696118552.373 8060972385671.462 8015429025897.226 7838413583069.098 7773368611448.045 8012507448713.613 8201202482767.452 7955216902061.869 7979466909670.071 3619402266760.154 3631900960671.819 3616156025814.3354 3603647030126.248 3497096812450.855 3462672955994.8706 3588449524959.8403 3704013299096.31 3557752458556.805 3623335300377.1646 0.0 0.0 0.0 0.0 0.0 0.0 0.0 0.0 0.0 0.0 0.0 0.0 0.0 0.0 0.0 0.0 0.0 0.0 0.0 0.0 0.0 0.0 0.0 0.0 0.0 0.0 0.0 0.0 0.0 0.0 0.0 0.0 0.0 0.0 0.0 0.0 0.0 0.0 0.0 0.0 0.0 0.0 0.0 0.0 0.0 0.0 0.0 0.0 0.0 0.0 0.0 0.0 0.0 0.0 0.0 0.0 0.0 0.0 0.0 0.0 0.0 0.0 0.0 0.0 0.0 0.0 0.0 0.0 0.0 0.0 0.0 0.0 0.0 0.0 0.0 0.0 0.0 0.0 0.0 0.0 0.0 0.0 0.0 0.0 0.0 0.0 0.0 0.0 0.0 0.0 0.0 0.0 0.0 0.0 0.0 0.0 0.0 0.0 0.0 0.0 0.0 0.0 0.0 0.0 0.0 0.0 0.0 0.0 0.0 0.0 0.0 0.0 0.0 0.0 0.0 0.0 0.0 0.0 0.0 0.0 0.0 0.0 0.0 0.0 0.0 0.0 0.0 0.0 0.0 0.0 0.0 0.0 0.0 0.0 0.0 0.0 0.0 0.0 0.0 0.0 0.0 0.0 0.0 0.0 0.0 0.0 0.0 0.0 0.0 0.0 0.0 0.0 0.0 0.0 0.0 0.0 0.0 0.0 0.0 0.0 0.0 0.0 0.0 0.0 0.0 0.0 0.0 0.0 0.0 0.0 0.0 0.0 0.0 0.0 0.0 0.0 0.0 0.0 0.0 0.0 0.0 0.0 0.0 0.0 0.0 0.0 0.0 0.0 0.0 0.0 0.0 0.0 0.0 0.0 0.0 0.0 0.0 0.0 0.0 0.0 0.0 0.0 0.0 0.0 0.0 0.0 0.0 0.0 0.0 0.0 0.0 0.0 0.0 0.0 0.0 0.0 0.0 0.0 0.0 0.0 0.0 0.0 0.0 0.0 0.0 0.0 0.0 0.0 0.0 0.0 0.0 0.0 0.0 0.0 0.0 0.0 0.0 0.0 0.0 0.0 0.0 0.0 0.0 0.0 0.0 0.0 0.0 0.0 0.0 0.0 0.0 0.0 0.0 0.0 0.0 0.0 0.0 0.0 0.0 0.0 0.0 0.0 0.0 0.0 0.0 0.0 0.0 0.0 0.0 0.0 0.0 0.0 0.0 0.0 0.0 0.0 0.0 0.0 0.0 0.0 0.0 0.0 0.0 0.0 0.0 0.0 0.0 0.0 0.0 0.0 
</DataArray>
</PointData>
</ImageData>
</VTKFile>
