<?xml version="1.0"?>
<VTKFile type="ImageData" version="0.1" byte_order="LittleEndian">
<ImageData Origin="-0.00132 0.0" Spacing="0.0002933333333333333 0.000264" WholeExtent="0 9 0 30 0 0">
<PointData>
<DataArray Name="object_id" NumberOfComponents="1" format="ascii" type="Int32">
2 2 2 2 2 2 2 2 2 2 0 0 0 0 0 0 0 0 0 0 0 0 0 0 0 0 0 0 0 0 0 0 0 0 0 0 0 0 0 0 0 0 0 0 0 0 0 0 0 0 1 1 0 0 0 0 0 0 1 1 1 1 0 0 0 0 0 0 1 1 0 0 0 0 0 0 0 0 0 0 0 0 0 0 0 0 0 0 0 0 1 1 1 0 0 0 0 1 1 1 1 1 1 0 0 0 0 1 1 1 1 1 1 0 0 0 0 1 1 1 1 1 1 0 0 0 0 1 1 1 0 0 0 0 0 0 0 0 0 0 0 0 0 0 0 0 0 0 0 0 0 0 0 0 0 0 0 0 0 0 1 1 0 0 0 0 0 0 1 1 1 1 0 0 0 0 0 0 1 1 1 1 0 0 0 0 0 0 1 1 0 0 0 0 0 0 0 0 0 0 0 0 0 0 0 0 0 0 0 0 0 0 0 0 0 0 0 0 0 0 0 0 0 0 0 0 0 0 0 0 0 0 0 0 0 0 0 0 0 0 0 0 0 0 0 0 0 0 0 0 0 0 0 0 0 0 0 0 0 0 0 0 0 0 0 0 0 0 0 0 0 0 0 0 0 0 0 0 0 0 0 0 0 0 0 0 0 0 0 0 0 0 0 0 0 0 0 0 0 0 0 0 0 0 0 0 0 0 0 0 
</DataArray>
<DataArray Name="NodeVol" NumberOfComponents="1" format="ascii" type="Float64">
1.9360000000000003e-08 3.8720000000000005e-08 3.8720000000000005e-08 3.8720000000000005e-08 3.8720000000000005e-08 3.8720000000000005e-08 3.8720000000000005e-08 3.8720000000000005e-08 3.8720000000000005e-08 1.9360000000000003e-08 3.8720000000000005e-08 7.744000000000001e-08 7.744000000000001e-08 7.744000000000001e-08 7.744000000000001e-08 7.744000000000001e-08 7.744000000000001e-08 7.744000000000001e-08 7.744000000000001e-08 3.8720000000000005e-08 3.8720000000000005e-08 7.744000000000001e-08 7.744000000000001e-08 7.744000000000001e-08 7.744000000000001e-08 7.744000000000001e-08 7.744000000000001e-08 7.744000000000001e-08 7.744000000000001e-08 3.8720000000000005e-08 3.8720000000000005e-08 7.744000000000001e-08 7.744000000000001e-08 7.744000000000001e-08 7.744000000000001e-08 7.744000000000001e-08 7.744000000000001e-08 7.744000000000001e-08 7.744000000000001e-08 3.8720000000000005e-08 3.8720000000000005e-08 7.744000000000001e-08 7.744000000000001e-08 7.744000000000001e-08 7.744000000000001e-08 7.744000000000001e-08 7.744000000000001e-08 7.744000000000001e-08 7.744000000000001e-08 3.8720000000000005e-08 3.8720000000000005e-08 7.744000000000001e-08 7.744000000000001e-08 7.744000000000001e-08 7.744000000000001e-08 7.744000000000001e-08 7.744000000000001e-08 7.744000000000001e-08 7.744000000000001e-08 3.8720000000000005e-08 3.8720000000000005e-08 7.744000000000001e-08 7.744000000000001e-08 7.744000000000001e-08 7.744000000000001e-08 7.744000000000001e-08 7.744000000000001e-08 7.744000000000001e-08 7.744000000000001e-08 3.8720000000000005e-08 3.8720000000000005e-08 7.744000000000001e-08 7.744000000000001e-08 7.744000000000001e-08 7.744000000000001e-08 7.744000000000001e-08 7.744000000000001e-08 7.744000000000001e-08 7.744000000000001e-08 3.8720000000000005e-08 3.8720000000000005e-08 7.744000000000001e-08 7.744000000000001e-08 7.744000000000001e-08 7.744000000000001e-08 7.744000000000001e-08 7.744000000000001e-08 7.744000000000001e-08 7.744000000000001e-08 3.8720000000000005e-08 3.8720000000000005e-08 7.744000000000001e-08 7.744000000000001e-08 7.744000000000001e-08 7.744000000000001e-08 7.744000000000001e-08 7.744000000000001e-08 7.744000000000001e-08 7.744000000000001e-08 3.8720000000000005e-08 3.8720000000000005e-08 7.744000000000001e-08 7.744000000000001e-08 7.744000000000001e-08 7.744000000000001e-08 7.744000000000001e-08 7.744000000000001e-08 7.744000000000001e-08 7.744000000000001e-08 3.8720000000000005e-08 3.8720000000000005e-08 7.744000000000001e-08 7.744000000000001e-08 7.744000000000001e-08 7.744000000000001e-08 7.744000000000001e-08 7.744000000000001e-08 7.744000000000001e-08 7.744000000000001e-08 3.8720000000000005e-08 3.8720000000000005e-08 7.744000000000001e-08 7.744000000000001e-08 7.744000000000001e-08 7.744000000000001e-08 7.744000000000001e-08 7.744000000000001e-08 7.744000000000001e-08 7.744000000000001e-08 3.8720000000000005e-08 3.8720000000000005e-08 7.744000000000001e-08 7.744000000000001e-08 7.744000000000001e-08 7.744000000000001e-08 7.744000000000001e-08 7.744000000000001e-08 7.744000000000001e-08 7.744000000000001e-08 3.8720000000000005e-08 3.8720000000000005e-08 7.744000000000001e-08 7.744000000000001e-08 7.744000000000001e-08 7.744000000000001e-08 7.744000000000001e-08 7.744000000000001e-08 7.744000000000001e-08 7.744000000000001e-08 3.8720000000000005e-08 3.8720000000000005e-08 7.744000000000001e-08 7.744000000000001e-08 7.744000000000001e-08 7.744000000000001e-08 7.744000000000001e-08 7.744000000000001e-08 7.744000000000001e-08 7.744000000000001e-08 3.8720000000000005e-08 3.8720000000000005e-08 7.744000000000001e-08 7.744000000000001e-08 7.744000000000001e-08 7.744000000000001e-08 7.744000000000001e-08 7.744000000000001e-08 7.744000000000001e-08 7.744000000000001e-08 3.8720000000000005e-08 3.8720000000000005e-08 7.744000000000001e-08 7.744000000000001e-08 7.744000000000001e-08 7.744000000000001e-08 7.744000000000001e-08 7.744000000000001e-08 7.744000000000001e-08 7.744000000000001e-08 3.8720000000000005e-08 3.8720000000000005e-08 7.744000000000001e-08 7.744000000000001e-08 7.744000000000001e-08 7.744000000000001e-08 7.744000000000001e-08 7.744000000000001e-08 7.744000000000001e-08 7.744000000000001e-08 3.8720000000000005e-08 3.8720000000000005e-08 7.744000000000001e-08 7.744000000000001e-08 7.744000000000001e-08 7.744000000000001e-08 7.744000000000001e-08 7.744000000000001e-08 7.744000000000001e-08 7.744000000000001e-08 3.8720000000000005e-08 3.8720000000000005e-08 7.744000000000001e-08 7.744000000000001e-08 7.744000000000001e-08 7.744000000000001e-08 7.744000000000001e-08 7.744000000000001e-08 7.744000000000001e-08 7.744000000000001e-08 3.8720000000000005e-08 3.8720000000000005e-08 7.744000000000001e-08 7.744000000000001e-08 7.744000000000001e-08 7.744000000000001e-08 7.744000000000001e-08 7.744000000000001e-08 7.744000000000001e-08 7.744000000000001e-08 3.8720000000000005e-08 3.8720000000000005e-08 7.744000000000001e-08 7.744000000000001e-08 7.744000000000001e-08 7.744000000000001e-08 7.744000000000001e-08 7.744000000000001e-08 7.744000000000001e-08 7.744000000000001e-08 3.8720000000000005e-08 3.8720000000000005e-08 7.744000000000001e-08 7.744000000000001e-08 7.744000000000001e-08 7.744000000000001e-08 7.744000000000001e-08 7.744000000000001e-08 7.744000000000001e-08 7.744000000000001e-08 3.8720000000000005e-08 3.8720000000000005e-08 7.744000000000001e-08 7.744000000000001e-08 7.744000000000001e-08 7.744000000000001e-08 7.744000000000001e-08 7.744000000000001e-08 7.744000000000001e-08 7.744000000000001e-08 3.8720000000000005e-08 3.8720000000000005e-08 7.744000000000001e-08 7.744000000000001e-08 7.744000000000001e-08 7.744000000000001e-08 7.744000000000001e-08 7.744000000000001e-08 7.744000000000001e-08 7.744000000000001e-08 3.8720000000000005e-08 3.8720000000000005e-08 7.744000000000001e-08 7.744000000000001e-08 7.744000000000001e-08 7.744000000000001e-08 7.744000000000001e-08 7.744000000000001e-08 7.744000000000001e-08 7.744000000000001e-08 3.8720000000000005e-08 3.8720000000000005e-08 7.744000000000001e-08 7.744000000000001e-08 7.744000000000001e-08 7.744000000000001e-08 7.744000000000001e-08 7.744000000000001e-08 7.744000000000001e-08 7.744000000000001e-08 3.8720000000000005e-08 3.8720000000000005e-08 7.744000000000001e-08 7.744000000000001e-08 7.744000000000001e-08 7.744000000000001e-08 7.744000000000001e-08 7.744000000000001e-08 7.744000000000001e-08 7.744000000000001e-08 3.8720000000000005e-08 3.8720000000000005e-08 7.744000000000001e-08 7.744000000000001e-08 7.744000000000001e-08 7.744000000000001e-08 7.744000000000001e-08 7.744000000000001e-08 7.744000000000001e-08 7.744000000000001e-08 3.8720000000000005e-08 1.9360000000000003e-08 3.8720000000000005e-08 3.8720000000000005e-08 3.8720000000000005e-08 3.8720000000000005e-08 3.8720000000000005e-08 3.8720000000000005e-08 3.8720000000000005e-08 3.8720000000000005e-08 1.9360000000000003e-08 
</DataArray>
<DataArray Name="phi" NumberOfComponents="1" format="ascii" type="Float64">
0.0 0.0 0.0 0.0 0.0 0.0 0.0 0.0 0.0 0.0 0.0 0.0 0.0 0.0 0.0 0.0 0.0 0.0 0.0 0.0 0.0 0.0 0.0 0.0 0.0 0.0 0.0 0.0 0.0 0.0 0.0 0.0 0.0 0.0 0.0 0.0 0.0 0.0 0.0 0.0 0.0 0.0 0.0 0.0 0.0 0.0 0.0 0.0 0.0 0.0 1.2 1.2 0.0 0.0 0.0 0.0 0.0 0.0 1.2 1.2 1.2 1.2 0.0 0.0 0.0 0.0 0.0 0.0 1.2 1.2 0.0 0.0 0.0 0.0 0.0 0.0 0.0 0.0 0.0 0.0 0.0 0.0 0.0 0.0 0.0 0.0 0.0 0.0 0.0 0.0 -0.1 -0.1 -0.1 0.0 0.0 0.0 0.0 -0.1 -0.1 -0.1 -0.1 -0.1 -0.1 0.0 0.0 0.0 0.0 -0.1 -0.1 -0.1 -0.1 -0.1 -0.1 0.0 0.0 0.0 0.0 -0.1 -0.1 -0.1 -0.1 -0.1 -0.1 0.0 0.0 0.0 0.0 -0.1 -0.1 -0.1 0.0 0.0 0.0 0.0 0.0 0.0 0.0 0.0 0.0 0.0 0.0 0.0 0.0 0.0 0.0 0.0 0.0 0.0 0.0 0.0 0.0 0.0 0.0 0.0 0.0 0.0 0.0 0.0 0.0 0.0 0.175 0.175 0.0 0.0 0.0 0.0 0.0 0.0 0.175 0.175 0.175 0.175 0.0 0.0 0.0 0.0 0.0 0.0 0.175 0.175 0.175 0.175 0.0 0.0 0.0 0.0 0.0 0.0 0.175 0.175 0.0 0.0 0.0 0.0 0.0 0.0 0.0 0.0 0.0 0.0 0.0 0.0 0.0 0.0 0.0 0.0 0.0 0.0 0.0 0.0 0.0 0.0 0.0 0.0 0.0 0.0 0.0 0.0 0.0 0.0 0.0 0.0 0.0 0.0 0.0 0.0 0.0 0.0 0.0 0.0 0.0 0.0 0.0 0.0 0.0 0.0 0.0 0.0 0.0 0.0 0.0 0.0 0.0 0.0 0.0 0.0 0.0 0.0 0.0 0.0 0.0 0.0 0.0 0.0 0.0 0.0 0.0 0.0 0.0 0.0 0.0 0.0 0.0 0.0 0.0 0.0 0.0 0.0 0.0 0.0 0.0 0.0 0.0 0.0 0.0 0.0 0.0 0.0 0.0 0.0 0.0 0.0 0.0 0.0 0.0 0.0 0.0 0.0 0.0 0.0 0.0 0.0 0.0 0.0 0.0 0.0 0.0 0.0 0.0 0.0 0.0 0.0 0.0 0.0 0.0 0.0 0.0 0.0 0.0 0.0 
</DataArray>
<DataArray Name="rho" NumberOfComponents="1" format="ascii" type="Float64">
1.2481700425964717e-08 1.2748113249386234e-08 1.267608652052598e-08 1.277016035688187e-08 1.2848271734692454e-08 1.2895114028890938e-08 1.2598501955508714e-08 1.2928713415965108e-08 1.2885569490131451e-08 1.288184812688795e-08 5.612934723191396e-09 5.736151754270601e-09 5.678084287157723e-09 5.717004885675017e-09 5.8143950789032384e-09 5.780616000901835e-09 5.720533757134956e-09 5.803499732793898e-09 5.818957285980057e-09 5.694897182764847e-09 0.0 0.0 0.0 0.0 0.0 0.0 0.0 0.0 0.0 0.0 0.0 0.0 0.0 0.0 0.0 0.0 0.0 0.0 0.0 0.0 0.0 0.0 0.0 0.0 0.0 0.0 0.0 0.0 0.0 0.0 0.0 0.0 0.0 0.0 0.0 0.0 0.0 0.0 0.0 0.0 0.0 0.0 0.0 0.0 0.0 0.0 0.0 0.0 0.0 0.0 0.0 0.0 0.0 0.0 0.0 0.0 0.0 0.0 0.0 0.0 0.0 0.0 0.0 0.0 0.0 0.0 0.0 0.0 0.0 0.0 0.0 0.0 0.0 0.0 0.0 0.0 0.0 0.0 0.0 0.0 0.0 0.0 0.0 0.0 0.0 0.0 0.0 0.0 0.0 0.0 0.0 0.0 0.0 0.0 0.0 0.0 0.0 0.0 0.0 0.0 0.0 0.0 0.0 0.0 0.0 0.0 0.0 0.0 0.0 0.0 0.0 0.0 0.0 0.0 0.0 0.0 0.0 0.0 0.0 0.0 0.0 0.0 0.0 0.0 0.0 0.0 0.0 0.0 0.0 0.0 0.0 0.0 0.0 0.0 0.0 0.0 0.0 0.0 0.0 0.0 0.0 0.0 0.0 0.0 0.0 0.0 0.0 0.0 0.0 0.0 0.0 0.0 0.0 0.0 0.0 0.0 0.0 0.0 0.0 0.0 0.0 0.0 0.0 0.0 0.0 0.0 0.0 0.0 0.0 0.0 0.0 0.0 0.0 0.0 0.0 0.0 0.0 0.0 0.0 0.0 0.0 0.0 0.0 0.0 0.0 0.0 0.0 0.0 0.0 0.0 0.0 0.0 0.0 0.0 0.0 0.0 0.0 0.0 0.0 0.0 0.0 0.0 0.0 0.0 0.0 0.0 0.0 0.0 0.0 0.0 0.0 0.0 0.0 0.0 0.0 0.0 0.0 0.0 0.0 0.0 0.0 0.0 0.0 0.0 0.0 0.0 0.0 0.0 0.0 0.0 0.0 0.0 0.0 0.0 0.0 0.0 0.0 0.0 0.0 0.0 0.0 0.0 0.0 0.0 0.0 0.0 0.0 0.0 0.0 0.0 0.0 0.0 0.0 0.0 0.0 0.0 0.0 0.0 0.0 0.0 0.0 0.0 0.0 0.0 0.0 0.0 0.0 0.0 0.0 0.0 0.0 0.0 0.0 0.0 0.0 0.0 0.0 0.0 0.0 0.0 0.0 0.0 0.0 0.0 0.0 0.0 0.0 0.0 0.0 0.0 
</DataArray>
<DataArray Name="ef" NumberOfComponents="2" format="ascii" type="Float64">
0.0 0.0 0.0 0.0 0.0 0.0 0.0 0.0 0.0 0.0 0.0 0.0 0.0 0.0 0.0 0.0 0.0 0.0 0.0 0.0 0.0 0.0 0.0 0.0 0.0 0.0 0.0 0.0 0.0 0.0 0.0 0.0 0.0 0.0 0.0 0.0 0.0 0.0 0.0 0.0 0.0 0.0 0.0 0.0 0.0 0.0 0.0 0.0 0.0 0.0 0.0 0.0 0.0 0.0 0.0 0.0 0.0 0.0 0.0 0.0 0.0 0.0 0.0 0.0 0.0 0.0 0.0 0.0 0.0 0.0 0.0 0.0 0.0 0.0 0.0 0.0 0.0 0.0 0.0 0.0 0.0 -2272.7272727272725 0.0 -2272.7272727272725 0.0 0.0 0.0 0.0 0.0 0.0 0.0 0.0 0.0 0.0 0.0 0.0 0.0 -2272.7272727272725 0.0 -2272.7272727272725 -2045.4545454545457 -2272.7272727272725 2045.4545454545455 -2272.7272727272725 2045.4545454545455 0.0 0.0 0.0 0.0 0.0 0.0 0.0 0.0 0.0 -2045.4545454545455 0.0 -2045.4545454545455 -2272.7272727272725 2045.4545454545457 -2272.7272727272725 -2045.4545454545457 2272.7272727272725 2045.4545454545455 2272.7272727272725 2045.4545454545455 0.0 0.0 0.0 0.0 0.0 0.0 0.0 0.0 0.0 -2045.4545454545455 0.0 -2045.4545454545455 2272.7272727272725 2045.4545454545457 2272.7272727272725 0.0 2272.7272727272725 0.0 2272.7272727272725 0.0 0.0 0.0 0.0 0.0 0.0 0.0 0.0 0.0 0.0 0.0 0.0 0.0 2272.7272727272725 0.0 2272.7272727272725 0.0 189.39393939393938 0.0 189.39393939393938 0.0 189.39393939393938 0.0 0.0 0.0 0.0 0.0 0.0 0.0 0.0 0.0 189.39393939393938 0.0 189.39393939393938 0.0 189.39393939393938 -4.731064025391292e-14 189.39393939393938 0.0 189.39393939393938 -170.45454545454547 189.39393939393938 -170.45454545454547 0.0 0.0 0.0 0.0 0.0 170.45454545454547 0.0 170.45454545454547 189.39393939393938 0.0 189.39393939393938 0.0 189.39393939393938 -4.731064025391292e-14 0.0 0.0 0.0 -170.45454545454547 0.0 -170.45454545454547 0.0 0.0 0.0 0.0 0.0 170.45454545454547 0.0 170.45454545454547 0.0 0.0 0.0 0.0 0.0 -4.731064025391292e-14 0.0 0.0 0.0 -170.45454545454547 0.0 -170.45454545454547 0.0 0.0 0.0 0.0 0.0 170.45454545454547 0.0 170.45454545454547 0.0 0.0 0.0 0.0 0.0 -4.731064025391292e-14 -189.39393939393938 0.0 -189.39393939393938 -170.45454545454547 -189.39393939393938 -170.45454545454547 0.0 0.0 0.0 0.0 0.0 170.45454545454547 0.0 170.45454545454547 -189.39393939393938 0.0 -189.39393939393938 0.0 -189.39393939393938 0.0 -189.39393939393938 0.0 -189.39393939393938 0.0 -189.39393939393938 0.0 0.0 0.0 0.0 0.0 0.0 0.0 0.0 0.0 -189.39393939393938 0.0 -189.39393939393938 0.0 -189.39393939393938 0.0 0.0 0.0 0.0 0.0 0.0 0.0 0.0 0.0 0.0 0.0 0.0 0.0 0.0 0.0 0.0 0.0 0.0 0.0 0.0 0.0 -331.4393939393939 0.0 -331.4393939393939 0.0 0.0 0.0 0.0 0.0 0.0 0.0 0.0 0.0 0.0 0.0 0.0 0.0 -331.4393939393939 0.0 -331.4393939393939 -298.2954545454546 -331.4393939393939 298.29545454545456 -331.4393939393939 298.29545454545456 0.0 0.0 0.0 0.0 0.0 0.0 0.0 0.0 0.0 -298.29545454545456 0.0 -298.29545454545456 -331.4393939393939 298.2954545454546 -331.4393939393939 -298.2954545454546 0.0 298.29545454545456 0.0 298.29545454545456 0.0 0.0 0.0 0.0 0.0 0.0 0.0 0.0 0.0 -298.29545454545456 0.0 -298.29545454545456 0.0 298.2954545454546 0.0 -298.2954545454546 331.4393939393939 298.29545454545456 331.4393939393939 298.29545454545456 0.0 0.0 0.0 0.0 0.0 0.0 0.0 0.0 0.0 -298.29545454545456 0.0 -298.29545454545456 331.4393939393939 298.2954545454546 331.4393939393939 0.0 331.4393939393939 0.0 331.4393939393939 0.0 0.0 0.0 0.0 0.0 0.0 0.0 0.0 0.0 0.0 0.0 0.0 0.0 331.4393939393939 0.0 331.4393939393939 0.0 0.0 0.0 0.0 0.0 0.0 0.0 0.0 0.0 0.0 0.0 0.0 0.0 0.0 0.0 0.0 0.0 0.0 0.0 0.0 0.0 0.0 0.0 0.0 0.0 0.0 0.0 0.0 0.0 0.0 0.0 0.0 0.0 0.0 0.0 0.0 0.0 0.0 0.0 0.0 0.0 0.0 0.0 0.0 0.0 0.0 0.0 0.0 0.0 0.0 0.0 0.0 0.0 0.0 0.0 0.0 0.0 0.0 0.0 0.0 0.0 0.0 0.0 0.0 0.0 0.0 0.0 0.0 0.0 0.0 0.0 0.0 0.0 0.0 0.0 0.0 0.0 0.0 0.0 0.0 0.0 0.0 0.0 0.0 0.0 0.0 0.0 0.0 0.0 0.0 0.0 0.0 0.0 0.0 0.0 0.0 0.0 0.0 0.0 0.0 0.0 0.0 0.0 0.0 0.0 0.0 0.0 0.0 0.0 0.0 0.0 0.0 0.0 0.0 0.0 0.0 0.0 0.0 0.0 0.0 0.0 0.0 0.0 0.0 0.0 0.0 0.0 0.0 0.0 0.0 0.0 0.0 0.0 0.0 0.0 0.0 0.0 0.0 0.0 0.0 0.0 0.0 0.0 0.0 0.0 0.0 0.0 0.0 0.0 0.0 0.0 0.0 0.0 0.0 0.0 0.0 0.0 0.0 0.0 0.0 0.0 0.0 0.0 0.0 0.0 0.0 0.0 0.0 0.0 0.0 0.0 0.0 0.0 0.0 0.0 0.0 0.0 0.0 0.0 0.0 0.0 0.0 0.0 0.0 0.0 0.0 0.0 0.0 0.0 0.0 0.0 0.0 0.0 0.0 0.0 0.0 0.0 0.0 0.0 0.0 0.0 0.0 0.0 0.0 0.0 0.0 0.0 0.0 0.0 0.0 0.0 0.0 0.0 0.0 0.0 0.0 0.0 0.0 0.0 0.0 
</DataArray>
<DataArray Name="nd.Xe+" NumberOfComponents="1" format="ascii" type="Float64">
7790464982843.334 7956746795498.306 7911791245383.732 7970507518240.894 8019260807682.862 8048497469372.82 7863366766638.928 8069468558207.945 8042540236588.376 8040217544242.978 3503318451790.8584 3580224476863.8223 3543981613011.3745 3568273940940.471 3629060121038.057 3607976877942.8096 3570476489359.3086 3622259780584.107 3631907626847.6426 3554475397513.286 0.0 0.0 0.0 0.0 0.0 0.0 0.0 0.0 0.0 0.0 0.0 0.0 0.0 0.0 0.0 0.0 0.0 0.0 0.0 0.0 0.0 0.0 0.0 0.0 0.0 0.0 0.0 0.0 0.0 0.0 0.0 0.0 0.0 0.0 0.0 0.0 0.0 0.0 0.0 0.0 0.0 0.0 0.0 0.0 0.0 0.0 0.0 0.0 0.0 0.0 0.0 0.0 0.0 0.0 0.0 0.0 0.0 0.0 0.0 0.0 0.0 0.0 0.0 0.0 0.0 0.0 0.0 0.0 0.0 0.0 0.0 0.0 0.0 0.0 0.0 0.0 0.0 0.0 0.0 0.0 0.0 0.0 0.0 0.0 0.0 0.0 0.0 0.0 0.0 0.0 0.0 0.0 0.0 0.0 0.0 0.0 0.0 0.0 0.0 0.0 0.0 0.0 0.0 0.0 0.0 0.0 0.0 0.0 0.0 0.0 0.0 0.0 0.0 0.0 0.0 0.0 0.0 0.0 0.0 0.0 0.0 0.0 0.0 0.0 0.0 0.0 0.0 0.0 0.0 0.0 0.0 0.0 0.0 0.0 0.0 0.0 0.0 0.0 0.0 0.0 0.0 0.0 0.0 0.0 0.0 0.0 0.0 0.0 0.0 0.0 0.0 0.0 0.0 0.0 0.0 0.0 0.0 0.0 0.0 0.0 0.0 0.0 0.0 0.0 0.0 0.0 0.0 0.0 0.0 0.0 0.0 0.0 0.0 0.0 0.0 0.0 0.0 0.0 0.0 0.0 0.0 0.0 0.0 0.0 0.0 0.0 0.0 0.0 0.0 0.0 0.0 0.0 0.0 0.0 0.0 0.0 0.0 0.0 0.0 0.0 0.0 0.0 0.0 0.0 0.0 0.0 0.0 0.0 0.0 0.0 0.0 0.0 0.0 0.0 0.0 0.0 0.0 0.0 0.0 0.0 0.0 0.0 0.0 0.0 0.0 0.0 0.0 0.0 0.0 0.0 0.0 0.0 0.0 0.0 0.0 0.0 0.0 0.0 0.0 0.0 0.0 0.0 0.0 0.0 0.0 0.0 0.0 0.0 0.0 0.0 0.0 0.0 0.0 0.0 0.0 0.0 0.0 0.0 0.0 0.0 0.0 0.0 0.0 0.0 0.0 0.0 0.0 0.0 0.0 0.0 0.0 0.0 0.0 0.0 0.0 0.0 0.0 0.0 0.0 0.0 0.0 0.0 0.0 0.0 0.0 0.0 0.0 0.0 0.0 0.0 
</DataArray>
</PointData>
</ImageData>
</VTKFile>
